
  ___ ___ ___ _ _ _  
 |   |   |_  | | | | 
 | | | | | . | | | | 
 |__ |  _|___|_____|  0.8.0.8313
 |___|_|             

User: pparkkin@nid02523
Date: Wed Aug  1 11:01:15 2012
Arch: x86_64
Pid:  25912
Dir:  /fs/local/linux26_x86_64/appl/nano/gpaw/0.8.0/lib/python/gpaw
ase:   /fs/local/linux26_x86_64/appl/nano/ASE/3.5.1/lib/python/ase  version:  3.5.1.2245
numpy: /fs/local/linux26_x86_64/opt/python/2.6.5-gcc/lib/python2.6/site-packages/numpy
units: Angstrom and eV

Memory estimate
---------------
Process memory now: 93.57 MiB
Calculator  17.91 MiB
    Density  4.88 MiB
        Arrays  1.87 MiB
        Localized functions  0.09 MiB
        Mixer  0.40 MiB
        Interpolator  2.52 MiB
    Hamiltonian  7.71 MiB
        Arrays  1.22 MiB
        Restrictor  1.36 MiB
        XC  0.00 MiB
        Poisson  5.12 MiB
        vbar  0.01 MiB
    Wavefunctions  5.32 MiB
        Arrays psit_nG  1.61 MiB
        Eigensolver  1.94 MiB
        Projectors  0.01 MiB
        Overlap op  1.61 MiB
        Kinetic operator  0.15 MiB

Positions:
  0 O     5.3121    5.0000    5.0000
  1 H     5.3121    5.0000    6.0100
  2 H     5.0000    5.9606    5.0000

        .------------------------.  
       /|                        |  
      / |                        |  
     /  |                        |  
    /   |                        |  
   /    |                        |  
  /     |                        |  
 *      |                        |  
 |      |                        |  
 |      |                        |  
 |      |        H               |  
 |      |        O               |  
 |      |                        |  
 |      |                        |  
 |      .------------------------.  
 |     /                        /   
 |    /                        /    
 |   /                        /     
 |  /                        /      
 | /                        /       
 |/                        /        
 *------------------------*         

Unit Cell:
           Periodic     X           Y           Z      Points  Spacing
  --------------------------------------------------------------------
  1. axis:    no    10.312107    0.000000    0.000000    52     0.1983
  2. axis:    no     0.000000   10.960567    0.000000    56     0.1957
  3. axis:    no     0.000000    0.000000   11.010000    56     0.1966

O-setup:
  name   : Oxygen
  id     : c7d727ddbf81696289a2bba6bb064aec
  Z      : 8
  valence: 6
  core   : 2
  charge : 0.0
  file   : /fs/local/linux26_x86_64/appl/nano/gpaw/setups/0.8/O.PBE.gz
  cutoffs: 0.74(comp), 1.30(filt), 0.83(core), lmax=2
  valence states:
            energy   radius
    2s(2)  -23.961   0.741
    2p(4)   -9.029   0.741
    *s       3.251   0.741
    *p      18.182   0.741
    *d       0.000   0.741

Using partial waves for O as LCAO basis

H-setup:
  name   : Hydrogen
  id     : d65de229564ff8ea4db303e23b6d1ecf
  Z      : 1
  valence: 1
  core   : 0
  charge : 0.0
  file   : /fs/local/linux26_x86_64/appl/nano/gpaw/setups/0.8/H.PBE.gz
  cutoffs: 0.48(comp), 0.85(filt), 0.53(core), lmax=2
  valence states:
            energy   radius
    1s(1)   -6.494   0.476
    *s      20.717   0.476
    *p       0.000   0.476

Using partial waves for H as LCAO basis

Using the PBE Exchange-Correlation Functional.
Spin-Paired Calculation
Total Charge:      0.000000
Fermi Temperature: 0.000000
Mode: Finite-difference
Eigensolver:       rmm-diis
                   (3 nearest neighbors central finite-difference stencil)
Poisson Solver:    Jacobi
                   (3 nearest neighbors central finite-difference stencil)

Interpolation:     6th Order
Reference Energy:  -2065.833348

Gamma Point Calculation
Total number of cores used: 16
Domain Decomposition: 2 x 2 x 4
MatrixOperator buffer_size: default value or 
                            see value of nblock in input file
Diagonalizer layout: Serial LAPACK
Orthonormalizer layout: Serial LAPACK

Symmetries present: 1
1 k-point in the Irreducible Part of the Brillouin Zone (total: 1)
Linear Mixing Parameter:           0.25
Pulay Mixing with 3 Old Densities
No Damping of Long Wave Oscillations

Convergence Criteria:
Total Energy Change:           0.0005 eV / electron
Integral of Absolute Density Change:    0.0001 electrons
Integral of Absolute Eigenstate Change: 1e-09
Number of Bands in Calculation:         24
Bands to Converge:                      Occupied States Only
Number of Valence Electrons:            8
                     log10-error:    Total        Iterations:
           Time      WFS    Density  Energy       Fermi  Poisson
iter:   1  11:01:17  +2.8            -12.32734    0      23     
iter:   2  11:01:17  -1.0            -15.61230    0             
iter:   3  11:01:17  -1.5            -15.84881    0             
iter:   4  11:01:18  -1.1   -0.8     -14.10781    0      13     
iter:   5  11:01:19  -1.6   -1.0     -14.10086    0      12     
iter:   6  11:01:19  -1.5   -1.2     -14.25745    0      9      
iter:   7  11:01:20  -2.3   -1.4     -14.17869    0      11     
iter:   8  11:01:21  -2.7   -2.1     -14.18369    0      7      
iter:   9  11:01:22  -3.6   -2.4     -14.19063    0      5      
iter:  10  11:01:22  -4.4   -2.4     -14.19110    0      4      
iter:  11  11:01:23  -4.0   -2.4     -14.19070    0      6      
iter:  12  11:01:23  -5.3   -2.6     -14.19080    0      5      
iter:  13  11:01:24  -4.9   -2.8     -14.19070    0      5      
iter:  14  11:01:24  -6.0   -3.3     -14.19083    0      3      
iter:  15  11:01:25  -5.3   -3.3     -14.19085    0      4      
iter:  16  11:01:26  -6.5   -3.5     -14.19074    0      3      
iter:  17  11:01:26  -6.0   -3.5     -14.19066    0      3      
iter:  18  11:01:27  -7.3   -4.1     -14.19088    0      1      
iter:  19  11:01:27  -7.1   -4.2     -14.19090    0      2      
iter:  20  11:01:27  -8.5   -4.4     -14.19063    0      1      
iter:  21  11:01:28  -7.3   -4.5     -14.19065    0      2      
iter:  22  11:01:28  -8.2   -4.4     -14.19106    0      1      
iter:  23  11:01:29  -8.7   -4.8     -14.19094    0      1      
iter:  24  11:01:29  -10.0  -5.5     -14.19078    0      1      
------------------------------------
Converged After 24 Iterations.

Energy Contributions Relative to Reference Atoms:(reference = -2065.83335)
-------------------------
Kinetic:        +12.87968
Potential:      -15.59323
External:        +0.00000
XC:             -11.64088
Entropy (-ST):   -0.00000
Local:           +0.16365
-------------------------
Free Energy:    -14.19078
Zero Kelvin:    -14.19078

Fermi Level: -4.18282
 Band   Eigenvalues  Occupancy
   0    -25.12047     2.00000
   1    -12.03764     2.00000
   2    -10.02785     2.00000
   3     -7.24271     2.00000
   4     -1.12293     0.00000
   5      0.60354     0.00000
   6      1.18895     0.00000
   7      1.22926     0.00000
   8      2.11082     0.00000
   9      2.31276     0.00000
  10      2.32782     0.00000
  11      2.38326     0.00000
  12      2.49979     0.00000
  13      2.87456     0.00000
  14      3.34054     0.00000
  15      3.64169     0.00000
  16      3.90590     0.00000
  17      3.95057     0.00000
  18      4.10272     0.00000
  19      4.17001     0.00000
  20      4.38238     0.00000
  21      4.49955     0.00000
  22      5.00120     0.00000
  23      5.27959     0.00000


Total Charge:  -0.000000 electrons
Dipole Moment: [-0.09176808  0.28221137  0.29668908]

Forces in eV/Ang:
  0 O    -0.65135    1.98934    2.11699
  1 H     0.29514   -0.92868   -1.14040
  2 H     0.35697   -1.07654   -0.97803

Positions:
  0 O     5.2506    5.1879    5.2000
  1 H     5.3400    4.9123    5.9023
  2 H     5.0337    5.8589    4.9076

        .------------------------.  
       /|                        |  
      / |                        |  
     /  |                        |  
    /   |                        |  
   /    |                        |  
  /     |                        |  
 *      |                        |  
 |      |                        |  
 |      |                        |  
 |      |        H               |  
 |      |        O               |  
 |      |                        |  
 |      |                        |  
 |      .------------------------.  
 |     /                        /   
 |    /                        /    
 |   /                        /     
 |  /                        /      
 | /                        /       
 |/                        /        
 *------------------------*         

Unit Cell:
           Periodic     X           Y           Z      Points  Spacing
  --------------------------------------------------------------------
  1. axis:    no    10.312107    0.000000    0.000000    52     0.1983
  2. axis:    no     0.000000   10.960567    0.000000    56     0.1957
  3. axis:    no     0.000000    0.000000   11.010000    56     0.1966

O-setup:
  name   : Oxygen
  id     : c7d727ddbf81696289a2bba6bb064aec
  Z      : 8
  valence: 6
  core   : 2
  charge : 0.0
  file   : /fs/local/linux26_x86_64/appl/nano/gpaw/setups/0.8/O.PBE.gz
  cutoffs: 0.74(comp), 1.30(filt), 0.83(core), lmax=2
  valence states:
            energy   radius
    2s(2)  -23.961   0.741
    2p(4)   -9.029   0.741
    *s       3.251   0.741
    *p      18.182   0.741
    *d       0.000   0.741

Using partial waves for O as LCAO basis

H-setup:
  name   : Hydrogen
  id     : d65de229564ff8ea4db303e23b6d1ecf
  Z      : 1
  valence: 1
  core   : 0
  charge : 0.0
  file   : /fs/local/linux26_x86_64/appl/nano/gpaw/setups/0.8/H.PBE.gz
  cutoffs: 0.48(comp), 0.85(filt), 0.53(core), lmax=2
  valence states:
            energy   radius
    1s(1)   -6.494   0.476
    *s      20.717   0.476
    *p       0.000   0.476

Using partial waves for H as LCAO basis

Using the PBE Exchange-Correlation Functional.
Spin-Paired Calculation
Total Charge:      0.000000
Fermi Temperature: 0.000000
Mode: Finite-difference
Eigensolver:       rmm-diis
                   (3 nearest neighbors central finite-difference stencil)
Poisson Solver:    Jacobi
                   (3 nearest neighbors central finite-difference stencil)

Interpolation:     6th Order
Reference Energy:  -2065.833348

Gamma Point Calculation
Total number of cores used: 16
Domain Decomposition: 2 x 2 x 4
MatrixOperator buffer_size: default value or 
                            see value of nblock in input file
Diagonalizer layout: Serial LAPACK
Orthonormalizer layout: Serial LAPACK

Symmetries present: 1
1 k-point in the Irreducible Part of the Brillouin Zone (total: 1)
Linear Mixing Parameter:           0.25
Pulay Mixing with 3 Old Densities
No Damping of Long Wave Oscillations

Convergence Criteria:
Total Energy Change:           0.0005 eV / electron
Integral of Absolute Density Change:    0.0001 electrons
Integral of Absolute Eigenstate Change: 1e-09
Number of Bands in Calculation:         24
Bands to Converge:                      Occupied States Only
Number of Valence Electrons:            8
                     log10-error:    Total        Iterations:
           Time      WFS    Density  Energy       Fermi  Poisson
iter:   1  11:01:31  +1.2             28.71150    0      19     
iter:   2  11:01:32  +0.6   -0.2     -14.52590    0      14     
iter:   3  11:01:33  +0.0   -0.4     -14.40801    0      16     
iter:   4  11:01:34  -0.0   -0.6     -8.28383     0      19     
iter:   5  11:01:35  -0.8   -1.0     -9.98803     0      15     
iter:   6  11:01:36  -1.7   -1.3     -10.15247    0      10     
iter:   7  11:01:37  -2.6   -1.6     -10.21822    0      8      
iter:   8  11:01:37  -3.1   -1.8     -10.21322    0      8      
iter:   9  11:01:38  -3.3   -2.0     -10.21117    0      7      
iter:  10  11:01:39  -3.8   -2.3     -10.21217    0      6      
iter:  11  11:01:39  -4.2   -2.6     -10.21241    0      5      
iter:  12  11:01:40  -4.7   -2.8     -10.21245    0      5      
iter:  13  11:01:40  -5.1   -3.1     -10.21248    0      4      
iter:  14  11:01:41  -5.9   -3.6     -10.21234    0      3      
iter:  15  11:01:41  -6.6   -3.8     -10.21239    0      2      
iter:  16  11:01:42  -7.1   -3.9     -10.21242    0      3      
iter:  17  11:01:42  -7.7   -4.5     -10.21231    0      1      
iter:  18  11:01:43  -8.0   -4.7     -10.21224    0      1      
iter:  19  11:01:43  -9.0   -5.1     -10.21242    0      1      
iter:  20  11:01:44  -8.8   -5.1     -10.21258    0      1      
iter:  21  11:01:44  -9.5   -5.1     -10.21245    0      1      
------------------------------------
Converged After 21 Iterations.

Energy Contributions Relative to Reference Atoms:(reference = -2065.83335)
-------------------------
Kinetic:        +46.04487
Potential:      -37.48341
External:        +0.00000
XC:             -18.92861
Entropy (-ST):   -0.00000
Local:           +0.15471
-------------------------
Free Energy:    -10.21245
Zero Kelvin:    -10.21245

Fermi Level: -4.04486
 Band   Eigenvalues  Occupancy
   0    -27.43451     2.00000
   1    -16.94077     2.00000
   2     -8.48777     2.00000
   3     -7.73384     2.00000
   4     -0.35589     0.00000
   5      0.92688     0.00000
   6      1.27449     0.00000
   7      1.32135     0.00000
   8      2.30187     0.00000
   9      2.41021     0.00000
  10      2.49556     0.00000
  11      2.74543     0.00000
  12      2.86548     0.00000
  13      2.98341     0.00000
  14      3.67291     0.00000
  15      3.78746     0.00000
  16      3.98120     0.00000
  17      4.04545     0.00000
  18      4.19905     0.00000
  19      4.24852     0.00000
  20      4.38048     0.00000
  21      4.81487     0.00000
  22      5.03249     0.00000
  23      5.14263     0.00000


Total Charge:  -0.000000 electrons
Dipole Moment: [-0.05415286  0.16773029  0.17437948]

Forces in eV/Ang:
  0 O     4.17434  -13.03936  -14.73986
  1 H     2.45847   -7.59845   22.44870
  2 H    -6.65774   20.64884   -7.75351

Positions:
  0 O     5.3050    5.0217    5.0231
  1 H     5.3153    4.9899    5.9976
  2 H     5.0039    5.9488    4.9893

        .------------------------.  
       /|                        |  
      / |                        |  
     /  |                        |  
    /   |                        |  
   /    |                        |  
  /     |                        |  
 *      |                        |  
 |      |                        |  
 |      |                        |  
 |      |        H               |  
 |      |        O               |  
 |      |                        |  
 |      |                        |  
 |      .------------------------.  
 |     /                        /   
 |    /                        /    
 |   /                        /     
 |  /                        /      
 | /                        /       
 |/                        /        
 *------------------------*         

Unit Cell:
           Periodic     X           Y           Z      Points  Spacing
  --------------------------------------------------------------------
  1. axis:    no    10.312107    0.000000    0.000000    52     0.1983
  2. axis:    no     0.000000   10.960567    0.000000    56     0.1957
  3. axis:    no     0.000000    0.000000   11.010000    56     0.1966

O-setup:
  name   : Oxygen
  id     : c7d727ddbf81696289a2bba6bb064aec
  Z      : 8
  valence: 6
  core   : 2
  charge : 0.0
  file   : /fs/local/linux26_x86_64/appl/nano/gpaw/setups/0.8/O.PBE.gz
  cutoffs: 0.74(comp), 1.30(filt), 0.83(core), lmax=2
  valence states:
            energy   radius
    2s(2)  -23.961   0.741
    2p(4)   -9.029   0.741
    *s       3.251   0.741
    *p      18.182   0.741
    *d       0.000   0.741

Using partial waves for O as LCAO basis

H-setup:
  name   : Hydrogen
  id     : d65de229564ff8ea4db303e23b6d1ecf
  Z      : 1
  valence: 1
  core   : 0
  charge : 0.0
  file   : /fs/local/linux26_x86_64/appl/nano/gpaw/setups/0.8/H.PBE.gz
  cutoffs: 0.48(comp), 0.85(filt), 0.53(core), lmax=2
  valence states:
            energy   radius
    1s(1)   -6.494   0.476
    *s      20.717   0.476
    *p       0.000   0.476

Using partial waves for H as LCAO basis

Using the PBE Exchange-Correlation Functional.
Spin-Paired Calculation
Total Charge:      0.000000
Fermi Temperature: 0.000000
Mode: Finite-difference
Eigensolver:       rmm-diis
                   (3 nearest neighbors central finite-difference stencil)
Poisson Solver:    Jacobi
                   (3 nearest neighbors central finite-difference stencil)

Interpolation:     6th Order
Reference Energy:  -2065.833348

Gamma Point Calculation
Total number of cores used: 16
Domain Decomposition: 2 x 2 x 4
MatrixOperator buffer_size: default value or 
                            see value of nblock in input file
Diagonalizer layout: Serial LAPACK
Orthonormalizer layout: Serial LAPACK

Symmetries present: 1
1 k-point in the Irreducible Part of the Brillouin Zone (total: 1)
Linear Mixing Parameter:           0.25
Pulay Mixing with 3 Old Densities
No Damping of Long Wave Oscillations

Convergence Criteria:
Total Energy Change:           0.0005 eV / electron
Integral of Absolute Density Change:    0.0001 electrons
Integral of Absolute Eigenstate Change: 1e-09
Number of Bands in Calculation:         24
Bands to Converge:                      Occupied States Only
Number of Valence Electrons:            8
                     log10-error:    Total        Iterations:
           Time      WFS    Density  Energy       Fermi  Poisson
iter:   1  11:01:46  +0.9             18.48070    0      18     
iter:   2  11:01:47  +0.5   -0.2     -15.76299    0      23     
iter:   3  11:01:48  -0.4   -0.4     -21.00617    0      16     
iter:   4  11:01:49  +0.2   -0.5     -13.69295    0      21     
iter:   5  11:01:50  -0.7   -0.5     -17.24969    0      14     
iter:   6  11:01:51  -0.2   -0.6     -12.67405    0      15     
iter:   7  11:01:52  -1.1   -1.1     -14.01330    0      10     
iter:   8  11:01:53  -1.5   -1.2     -14.27541    0      14     
iter:   9  11:01:54  -2.6   -1.5     -14.29609    0      10     
iter:  10  11:01:55  -2.2   -1.7     -14.27027    0      11     
iter:  11  11:01:55  -3.1   -2.0     -14.28230    0      6      
iter:  12  11:01:56  -3.1   -2.2     -14.28245    0      9      
iter:  13  11:01:57  -3.2   -2.2     -14.28171    0      6      
iter:  14  11:01:57  -4.1   -2.4     -14.28231    0      6      
iter:  15  11:01:58  -4.9   -3.0     -14.28243    0      4      
iter:  16  11:01:59  -5.7   -3.1     -14.28267    0      3      
iter:  17  11:01:59  -6.2   -3.3     -14.28259    0      4      
iter:  18  11:02:00  -6.3   -3.6     -14.28248    0      3      
iter:  19  11:02:00  -7.3   -3.8     -14.28264    0      2      
iter:  20  11:02:01  -7.0   -4.0     -14.28258    0      3      
iter:  21  11:02:01  -7.2   -4.2     -14.28244    0      2      
iter:  22  11:02:02  -8.3   -4.4     -14.28272    0      1      
iter:  23  11:02:02  -8.8   -4.8     -14.28266    0      1      
iter:  24  11:02:03  -9.5   -5.1     -14.28257    0      1      
------------------------------------
Converged After 24 Iterations.

Energy Contributions Relative to Reference Atoms:(reference = -2065.83335)
-------------------------
Kinetic:        +15.80429
Potential:      -17.77195
External:        +0.00000
XC:             -12.47606
Entropy (-ST):   -0.00000
Local:           +0.16114
-------------------------
Free Energy:    -14.28257
Zero Kelvin:    -14.28257

Fermi Level: -4.13626
 Band   Eigenvalues  Occupancy
   0    -25.42892     2.00000
   1    -12.52554     2.00000
   2     -9.87052     2.00000
   3     -7.29045     2.00000
   4     -0.98208     0.00000
   5      0.69624     0.00000
   6      1.20640     0.00000
   7      1.24497     0.00000
   8      2.18115     0.00000
   9      2.33992     0.00000
  10      2.40247     0.00000
  11      2.42800     0.00000
  12      2.52817     0.00000
  13      2.88394     0.00000
  14      3.44929     0.00000
  15      3.64839     0.00000
  16      3.92052     0.00000
  17      3.96222     0.00000
  18      4.12190     0.00000
  19      4.16790     0.00000
  20      4.34889     0.00000
  21      4.53000     0.00000
  22      4.90066     0.00000
  23      5.04625     0.00000


Total Charge:  -0.000000 electrons
Dipole Moment: [-0.08881186  0.27321541  0.28709204]

Forces in eV/Ang:
  0 O    -0.18177    0.51615    0.52884
  1 H     0.23973   -0.76822    0.27563
  2 H    -0.07533    0.25393   -0.80429

Positions:
  0 O     5.2890    5.0655    5.0671
  1 H     5.3433    4.8999    6.0477
  2 H     4.9896    5.9954    4.8952

        .------------------------.  
       /|                        |  
      / |                        |  
     /  |                        |  
    /   |                        |  
   /    |                        |  
  /     |                        |  
 *      |                        |  
 |      |                        |  
 |      |                        |  
 |      |        H               |  
 |      |        O               |  
 |      |                        |  
 |      |                        |  
 |      .------------------------.  
 |     /                        /   
 |    /                        /    
 |   /                        /     
 |  /                        /      
 | /                        /       
 |/                        /        
 *------------------------*         

Unit Cell:
           Periodic     X           Y           Z      Points  Spacing
  --------------------------------------------------------------------
  1. axis:    no    10.312107    0.000000    0.000000    52     0.1983
  2. axis:    no     0.000000   10.960567    0.000000    56     0.1957
  3. axis:    no     0.000000    0.000000   11.010000    56     0.1966

O-setup:
  name   : Oxygen
  id     : c7d727ddbf81696289a2bba6bb064aec
  Z      : 8
  valence: 6
  core   : 2
  charge : 0.0
  file   : /fs/local/linux26_x86_64/appl/nano/gpaw/setups/0.8/O.PBE.gz
  cutoffs: 0.74(comp), 1.30(filt), 0.83(core), lmax=2
  valence states:
            energy   radius
    2s(2)  -23.961   0.741
    2p(4)   -9.029   0.741
    *s       3.251   0.741
    *p      18.182   0.741
    *d       0.000   0.741

Using partial waves for O as LCAO basis

H-setup:
  name   : Hydrogen
  id     : d65de229564ff8ea4db303e23b6d1ecf
  Z      : 1
  valence: 1
  core   : 0
  charge : 0.0
  file   : /fs/local/linux26_x86_64/appl/nano/gpaw/setups/0.8/H.PBE.gz
  cutoffs: 0.48(comp), 0.85(filt), 0.53(core), lmax=2
  valence states:
            energy   radius
    1s(1)   -6.494   0.476
    *s      20.717   0.476
    *p       0.000   0.476

Using partial waves for H as LCAO basis

Using the PBE Exchange-Correlation Functional.
Spin-Paired Calculation
Total Charge:      0.000000
Fermi Temperature: 0.000000
Mode: Finite-difference
Eigensolver:       rmm-diis
                   (3 nearest neighbors central finite-difference stencil)
Poisson Solver:    Jacobi
                   (3 nearest neighbors central finite-difference stencil)

Interpolation:     6th Order
Reference Energy:  -2065.833348

Gamma Point Calculation
Total number of cores used: 16
Domain Decomposition: 2 x 2 x 4
MatrixOperator buffer_size: default value or 
                            see value of nblock in input file
Diagonalizer layout: Serial LAPACK
Orthonormalizer layout: Serial LAPACK

Symmetries present: 1
1 k-point in the Irreducible Part of the Brillouin Zone (total: 1)
Linear Mixing Parameter:           0.25
Pulay Mixing with 3 Old Densities
No Damping of Long Wave Oscillations

Convergence Criteria:
Total Energy Change:           0.0005 eV / electron
Integral of Absolute Density Change:    0.0001 electrons
Integral of Absolute Eigenstate Change: 1e-09
Number of Bands in Calculation:         24
Bands to Converge:                      Occupied States Only
Number of Valence Electrons:            8
                     log10-error:    Total        Iterations:
           Time      WFS    Density  Energy       Fermi  Poisson
iter:   1  11:02:04  +0.0            -12.07028    0      15     
iter:   2  11:02:05  -1.1   -1.0     -14.52086    0      10     
iter:   3  11:02:06  -1.7   -1.1     -14.24925    0      12     
iter:   4  11:02:07  -2.2   -1.6     -14.26815    0      10     
iter:   5  11:02:07  -2.9   -2.0     -14.29772    0      7      
iter:   6  11:02:08  -3.5   -2.2     -14.29818    0      7      
iter:   7  11:02:09  -3.8   -2.4     -14.29814    0      6      
iter:   8  11:02:09  -4.6   -2.6     -14.29817    0      5      
iter:   9  11:02:10  -5.3   -3.2     -14.29819    0      4      
iter:  10  11:02:10  -5.3   -3.5     -14.29820    0      4      
iter:  11  11:02:11  -5.9   -3.3     -14.29814    0      4      
iter:  12  11:02:11  -6.5   -3.8     -14.29814    0      3      
iter:  13  11:02:12  -7.2   -4.1     -14.29816    0      3      
iter:  14  11:02:12  -8.3   -4.5     -14.29811    0      1      
iter:  15  11:02:13  -8.6   -4.7     -14.29810    0      1      
iter:  16  11:02:13  -9.2   -5.0     -14.29816    0      1      
------------------------------------
Converged After 16 Iterations.

Energy Contributions Relative to Reference Atoms:(reference = -2065.83335)
-------------------------
Kinetic:        +13.23502
Potential:      -15.75376
External:        +0.00000
XC:             -11.94667
Entropy (-ST):   -0.00000
Local:           +0.16725
-------------------------
Free Energy:    -14.29816
Zero Kelvin:    -14.29816

Fermi Level: -4.07920
 Band   Eigenvalues  Occupancy
   0    -24.92345     2.00000
   1    -13.13851     2.00000
   2     -9.02471     2.00000
   3     -7.16743     2.00000
   4     -0.99097     0.00000
   5      0.59965     0.00000
   6      1.21006     0.00000
   7      1.24277     0.00000
   8      2.05021     0.00000
   9      2.32037     0.00000
  10      2.43144     0.00000
  11      2.45947     0.00000
  12      2.53874     0.00000
  13      2.86970     0.00000
  14      3.40258     0.00000
  15      3.63660     0.00000
  16      3.87805     0.00000
  17      3.97121     0.00000
  18      4.09965     0.00000
  19      4.15569     0.00000
  20      4.33223     0.00000
  21      4.53892     0.00000
  22      4.82071     0.00000
  23      5.01310     0.00000


Total Charge:  -0.000000 electrons
Dipole Moment: [-0.07743952  0.24136978  0.25491118]

Forces in eV/Ang:
  0 O    -0.03707    0.11610    0.36905
  1 H    -0.21440    0.64965   -1.01466
  2 H     0.26498   -0.77981    0.63833

Positions:
  0 O     5.2964    5.0452    5.0466
  1 H     5.3303    4.9417    6.0244
  2 H     4.9963    5.9738    4.9389

        .------------------------.  
       /|                        |  
      / |                        |  
     /  |                        |  
    /   |                        |  
   /    |                        |  
  /     |                        |  
 *      |                        |  
 |      |                        |  
 |      |                        |  
 |      |        H               |  
 |      |        O               |  
 |      |                        |  
 |      |                        |  
 |      .------------------------.  
 |     /                        /   
 |    /                        /    
 |   /                        /     
 |  /                        /      
 | /                        /       
 |/                        /        
 *------------------------*         

Unit Cell:
           Periodic     X           Y           Z      Points  Spacing
  --------------------------------------------------------------------
  1. axis:    no    10.312107    0.000000    0.000000    52     0.1983
  2. axis:    no     0.000000   10.960567    0.000000    56     0.1957
  3. axis:    no     0.000000    0.000000   11.010000    56     0.1966

O-setup:
  name   : Oxygen
  id     : c7d727ddbf81696289a2bba6bb064aec
  Z      : 8
  valence: 6
  core   : 2
  charge : 0.0
  file   : /fs/local/linux26_x86_64/appl/nano/gpaw/setups/0.8/O.PBE.gz
  cutoffs: 0.74(comp), 1.30(filt), 0.83(core), lmax=2
  valence states:
            energy   radius
    2s(2)  -23.961   0.741
    2p(4)   -9.029   0.741
    *s       3.251   0.741
    *p      18.182   0.741
    *d       0.000   0.741

Using partial waves for O as LCAO basis

H-setup:
  name   : Hydrogen
  id     : d65de229564ff8ea4db303e23b6d1ecf
  Z      : 1
  valence: 1
  core   : 0
  charge : 0.0
  file   : /fs/local/linux26_x86_64/appl/nano/gpaw/setups/0.8/H.PBE.gz
  cutoffs: 0.48(comp), 0.85(filt), 0.53(core), lmax=2
  valence states:
            energy   radius
    1s(1)   -6.494   0.476
    *s      20.717   0.476
    *p       0.000   0.476

Using partial waves for H as LCAO basis

Using the PBE Exchange-Correlation Functional.
Spin-Paired Calculation
Total Charge:      0.000000
Fermi Temperature: 0.000000
Mode: Finite-difference
Eigensolver:       rmm-diis
                   (3 nearest neighbors central finite-difference stencil)
Poisson Solver:    Jacobi
                   (3 nearest neighbors central finite-difference stencil)

Interpolation:     6th Order
Reference Energy:  -2065.833348

Gamma Point Calculation
Total number of cores used: 16
Domain Decomposition: 2 x 2 x 4
MatrixOperator buffer_size: default value or 
                            see value of nblock in input file
Diagonalizer layout: Serial LAPACK
Orthonormalizer layout: Serial LAPACK

Symmetries present: 1
1 k-point in the Irreducible Part of the Brillouin Zone (total: 1)
Linear Mixing Parameter:           0.25
Pulay Mixing with 3 Old Densities
No Damping of Long Wave Oscillations

Convergence Criteria:
Total Energy Change:           0.0005 eV / electron
Integral of Absolute Density Change:    0.0001 electrons
Integral of Absolute Eigenstate Change: 1e-09
Number of Bands in Calculation:         24
Bands to Converge:                      Occupied States Only
Number of Valence Electrons:            8
                     log10-error:    Total        Iterations:
           Time      WFS    Density  Energy       Fermi  Poisson
iter:   1  11:02:15  -0.6            -13.81674    0      14     
iter:   2  11:02:15  -1.8   -1.3     -14.40521    0      9      
iter:   3  11:02:16  -1.6   -1.4     -14.33831    0      11     
iter:   4  11:02:17  -2.0   -1.5     -14.32320    0      10     
iter:   5  11:02:18  -3.3   -1.9     -14.34470    0      7      
iter:   6  11:02:18  -3.5   -2.2     -14.34289    0      7      
iter:   7  11:02:19  -4.5   -2.6     -14.34353    0      4      
iter:   8  11:02:20  -4.9   -2.8     -14.34346    0      5      
iter:   9  11:02:20  -5.8   -3.0     -14.34353    0      4      
iter:  10  11:02:21  -5.7   -3.1     -14.34357    0      4      
iter:  11  11:02:21  -6.5   -3.6     -14.34359    0      3      
iter:  12  11:02:22  -6.3   -3.8     -14.34360    0      3      
iter:  13  11:02:22  -6.9   -4.1     -14.34353    0      3      
iter:  14  11:02:23  -7.9   -4.4     -14.34359    0      2      
iter:  15  11:02:23  -8.8   -4.8     -14.34354    0      1      
iter:  16  11:02:24  -8.8   -5.0     -14.34341    0      1      
iter:  17  11:02:24  -10.0  -5.2     -14.34355    0      1      
------------------------------------
Converged After 17 Iterations.

Energy Contributions Relative to Reference Atoms:(reference = -2065.83335)
-------------------------
Kinetic:        +14.63692
Potential:      -16.88986
External:        +0.00000
XC:             -12.25415
Entropy (-ST):   -0.00000
Local:           +0.16354
-------------------------
Free Energy:    -14.34355
Zero Kelvin:    -14.34355

Fermi Level: -4.09743
 Band   Eigenvalues  Occupancy
   0    -25.16867     2.00000
   1    -12.90426     2.00000
   2     -9.41018     2.00000
   3     -7.22911     2.00000
   4     -0.96576     0.00000
   5      0.64978     0.00000
   6      1.21151     0.00000
   7      1.24480     0.00000
   8      2.12743     0.00000
   9      2.33332     0.00000
  10      2.43150     0.00000
  11      2.43984     0.00000
  12      2.53546     0.00000
  13      2.87737     0.00000
  14      3.42961     0.00000
  15      3.64336     0.00000
  16      3.90576     0.00000
  17      3.96396     0.00000
  18      4.11226     0.00000
  19      4.16244     0.00000
  20      4.34147     0.00000
  21      4.53672     0.00000
  22      4.86380     0.00000
  23      5.01699     0.00000


Total Charge:  -0.000000 electrons
Dipole Moment: [-0.0829256   0.25675614  0.27041462]

Forces in eV/Ang:
  0 O    -0.08806    0.26812    0.40958
  1 H    -0.00825   -0.00170   -0.39557
  2 H     0.10136   -0.26910   -0.01270

Positions:
  0 O     5.2963    5.0443    5.0575
  1 H     5.3297    4.9404    6.0161
  2 H     4.9969    5.9761    4.9366

        .------------------------.  
       /|                        |  
      / |                        |  
     /  |                        |  
    /   |                        |  
   /    |                        |  
  /     |                        |  
 *      |                        |  
 |      |                        |  
 |      |                        |  
 |      |        H               |  
 |      |        O               |  
 |      |                        |  
 |      |                        |  
 |      .------------------------.  
 |     /                        /   
 |    /                        /    
 |   /                        /     
 |  /                        /      
 | /                        /       
 |/                        /        
 *------------------------*         

Unit Cell:
           Periodic     X           Y           Z      Points  Spacing
  --------------------------------------------------------------------
  1. axis:    no    10.312107    0.000000    0.000000    52     0.1983
  2. axis:    no     0.000000   10.960567    0.000000    56     0.1957
  3. axis:    no     0.000000    0.000000   11.010000    56     0.1966

O-setup:
  name   : Oxygen
  id     : c7d727ddbf81696289a2bba6bb064aec
  Z      : 8
  valence: 6
  core   : 2
  charge : 0.0
  file   : /fs/local/linux26_x86_64/appl/nano/gpaw/setups/0.8/O.PBE.gz
  cutoffs: 0.74(comp), 1.30(filt), 0.83(core), lmax=2
  valence states:
            energy   radius
    2s(2)  -23.961   0.741
    2p(4)   -9.029   0.741
    *s       3.251   0.741
    *p      18.182   0.741
    *d       0.000   0.741

Using partial waves for O as LCAO basis

H-setup:
  name   : Hydrogen
  id     : d65de229564ff8ea4db303e23b6d1ecf
  Z      : 1
  valence: 1
  core   : 0
  charge : 0.0
  file   : /fs/local/linux26_x86_64/appl/nano/gpaw/setups/0.8/H.PBE.gz
  cutoffs: 0.48(comp), 0.85(filt), 0.53(core), lmax=2
  valence states:
            energy   radius
    1s(1)   -6.494   0.476
    *s      20.717   0.476
    *p       0.000   0.476

Using partial waves for H as LCAO basis

Using the PBE Exchange-Correlation Functional.
Spin-Paired Calculation
Total Charge:      0.000000
Fermi Temperature: 0.000000
Mode: Finite-difference
Eigensolver:       rmm-diis
                   (3 nearest neighbors central finite-difference stencil)
Poisson Solver:    Jacobi
                   (3 nearest neighbors central finite-difference stencil)

Interpolation:     6th Order
Reference Energy:  -2065.833348

Gamma Point Calculation
Total number of cores used: 16
Domain Decomposition: 2 x 2 x 4
MatrixOperator buffer_size: default value or 
                            see value of nblock in input file
Diagonalizer layout: Serial LAPACK
Orthonormalizer layout: Serial LAPACK

Symmetries present: 1
1 k-point in the Irreducible Part of the Brillouin Zone (total: 1)
Linear Mixing Parameter:           0.25
Pulay Mixing with 3 Old Densities
No Damping of Long Wave Oscillations

Convergence Criteria:
Total Energy Change:           0.0005 eV / electron
Integral of Absolute Density Change:    0.0001 electrons
Integral of Absolute Eigenstate Change: 1e-09
Number of Bands in Calculation:         24
Bands to Converge:                      Occupied States Only
Number of Valence Electrons:            8
                     log10-error:    Total        Iterations:
           Time      WFS    Density  Energy       Fermi  Poisson
iter:   1  11:02:26  -1.4            -14.25201    0      11     
iter:   2  11:02:26  -2.6   -1.7     -14.35771    0      7      
iter:   3  11:02:27  -2.3   -1.8     -14.33667    0      10     
iter:   4  11:02:28  -3.2   -1.8     -14.33943    0      8      
iter:   5  11:02:28  -4.5   -2.6     -14.34077    0      5      
iter:   6  11:02:29  -5.2   -2.8     -14.34083    0      5      
iter:   7  11:02:29  -5.5   -3.3     -14.34086    0      4      
iter:   8  11:02:30  -5.9   -3.7     -14.34087    0      3      
iter:   9  11:02:31  -5.9   -3.7     -14.34083    0      3      
iter:  10  11:02:31  -6.8   -4.0     -14.34085    0      3      
iter:  11  11:02:32  -6.9   -3.8     -14.34086    0      3      
iter:  12  11:02:32  -7.9   -4.4     -14.34083    0      2      
iter:  13  11:02:33  -8.1   -4.5     -14.34082    0      2      
iter:  14  11:02:33  -8.3   -4.5     -14.34086    0      2      
iter:  15  11:02:33  -9.2   -4.8     -14.34081    0      1      
------------------------------------
Converged After 15 Iterations.

Energy Contributions Relative to Reference Atoms:(reference = -2065.83335)
-------------------------
Kinetic:        +15.30702
Potential:      -17.37395
External:        +0.00000
XC:             -12.43686
Entropy (-ST):   -0.00000
Local:           +0.16298
-------------------------
Free Energy:    -14.34081
Zero Kelvin:    -14.34081

Fermi Level: -4.09023
 Band   Eigenvalues  Occupancy
   0    -25.23603     2.00000
   1    -13.01211     2.00000
   2     -9.37729     2.00000
   3     -7.24037     2.00000
   4     -0.94010     0.00000
   5      0.66652     0.00000
   6      1.21473     0.00000
   7      1.24794     0.00000
   8      2.13378     0.00000
   9      2.33576     0.00000
  10      2.43456     0.00000
  11      2.46985     0.00000
  12      2.53927     0.00000
  13      2.87903     0.00000
  14      3.45003     0.00000
  15      3.64465     0.00000
  16      3.90860     0.00000
  17      3.96734     0.00000
  18      4.11674     0.00000
  19      4.16375     0.00000
  20      4.34316     0.00000
  21      4.54618     0.00000
  22      4.86695     0.00000
  23      5.01937     0.00000


Total Charge:  -0.000000 electrons
Dipole Moment: [-0.08307102  0.25831761  0.26439558]

Forces in eV/Ang:
  0 O    -0.20382    0.55630   -0.61186
  1 H     0.01285   -0.06223    0.55790
  2 H     0.17089   -0.48965    0.06216

Positions:
  0 O     5.2964    5.0449    5.0506
  1 H     5.3301    4.9412    6.0214
  2 H     4.9965    5.9746    4.9381

        .------------------------.  
       /|                        |  
      / |                        |  
     /  |                        |  
    /   |                        |  
   /    |                        |  
  /     |                        |  
 *      |                        |  
 |      |                        |  
 |      |                        |  
 |      |        H               |  
 |      |        O               |  
 |      |                        |  
 |      |                        |  
 |      .------------------------.  
 |     /                        /   
 |    /                        /    
 |   /                        /     
 |  /                        /      
 | /                        /       
 |/                        /        
 *------------------------*         

Unit Cell:
           Periodic     X           Y           Z      Points  Spacing
  --------------------------------------------------------------------
  1. axis:    no    10.312107    0.000000    0.000000    52     0.1983
  2. axis:    no     0.000000   10.960567    0.000000    56     0.1957
  3. axis:    no     0.000000    0.000000   11.010000    56     0.1966

O-setup:
  name   : Oxygen
  id     : c7d727ddbf81696289a2bba6bb064aec
  Z      : 8
  valence: 6
  core   : 2
  charge : 0.0
  file   : /fs/local/linux26_x86_64/appl/nano/gpaw/setups/0.8/O.PBE.gz
  cutoffs: 0.74(comp), 1.30(filt), 0.83(core), lmax=2
  valence states:
            energy   radius
    2s(2)  -23.961   0.741
    2p(4)   -9.029   0.741
    *s       3.251   0.741
    *p      18.182   0.741
    *d       0.000   0.741

Using partial waves for O as LCAO basis

H-setup:
  name   : Hydrogen
  id     : d65de229564ff8ea4db303e23b6d1ecf
  Z      : 1
  valence: 1
  core   : 0
  charge : 0.0
  file   : /fs/local/linux26_x86_64/appl/nano/gpaw/setups/0.8/H.PBE.gz
  cutoffs: 0.48(comp), 0.85(filt), 0.53(core), lmax=2
  valence states:
            energy   radius
    1s(1)   -6.494   0.476
    *s      20.717   0.476
    *p       0.000   0.476

Using partial waves for H as LCAO basis

Using the PBE Exchange-Correlation Functional.
Spin-Paired Calculation
Total Charge:      0.000000
Fermi Temperature: 0.000000
Mode: Finite-difference
Eigensolver:       rmm-diis
                   (3 nearest neighbors central finite-difference stencil)
Poisson Solver:    Jacobi
                   (3 nearest neighbors central finite-difference stencil)

Interpolation:     6th Order
Reference Energy:  -2065.833348

Gamma Point Calculation
Total number of cores used: 16
Domain Decomposition: 2 x 2 x 4
MatrixOperator buffer_size: default value or 
                            see value of nblock in input file
Diagonalizer layout: Serial LAPACK
Orthonormalizer layout: Serial LAPACK

Symmetries present: 1
1 k-point in the Irreducible Part of the Brillouin Zone (total: 1)
Linear Mixing Parameter:           0.25
Pulay Mixing with 3 Old Densities
No Damping of Long Wave Oscillations

Convergence Criteria:
Total Energy Change:           0.0005 eV / electron
Integral of Absolute Density Change:    0.0001 electrons
Integral of Absolute Eigenstate Change: 1e-09
Number of Bands in Calculation:         24
Bands to Converge:                      Occupied States Only
Number of Valence Electrons:            8
                     log10-error:    Total        Iterations:
           Time      WFS    Density  Energy       Fermi  Poisson
iter:   1  11:02:35  -1.8            -14.30850    0      11     
iter:   2  11:02:35  -2.9   -1.9     -14.35170    0      6      
iter:   3  11:02:36  -2.8   -2.0     -14.34148    0      9      
iter:   4  11:02:37  -3.9   -2.2     -14.34478    0      6      
iter:   5  11:02:37  -4.8   -2.8     -14.34475    0      5      
iter:   6  11:02:38  -5.9   -3.1     -14.34486    0      5      
iter:   7  11:02:39  -6.1   -3.5     -14.34483    0      4      
iter:   8  11:02:39  -6.7   -4.0     -14.34485    0      2      
iter:   9  11:02:40  -6.6   -4.0     -14.34487    0      3      
iter:  10  11:02:40  -7.8   -3.8     -14.34481    0      2      
iter:  11  11:02:41  -7.3   -4.0     -14.34484    0      3      
iter:  12  11:02:41  -8.1   -4.7     -14.34487    0      1      
iter:  13  11:02:42  -8.4   -4.9     -14.34486    0      2      
iter:  14  11:02:42  -9.4   -4.6     -14.34486    0      1      
------------------------------------
Converged After 14 Iterations.

Energy Contributions Relative to Reference Atoms:(reference = -2065.83335)
-------------------------
Kinetic:        +14.87116
Potential:      -17.06001
External:        +0.00000
XC:             -12.31940
Entropy (-ST):   -0.00000
Local:           +0.16340
-------------------------
Free Energy:    -14.34486
Zero Kelvin:    -14.34486

Fermi Level: -4.09457
 Band   Eigenvalues  Occupancy
   0    -25.19253     2.00000
   1    -12.94349     2.00000
   2     -9.39825     2.00000
   3     -7.23319     2.00000
   4     -0.95596     0.00000
   5      0.65606     0.00000
   6      1.21268     0.00000
   7      1.24594     0.00000
   8      2.13025     0.00000
   9      2.33420     0.00000
  10      2.43317     0.00000
  11      2.45065     0.00000
  12      2.53637     0.00000
  13      2.87796     0.00000
  14      3.43710     0.00000
  15      3.64378     0.00000
  16      3.90671     0.00000
  17      3.96514     0.00000
  18      4.11386     0.00000
  19      4.16291     0.00000
  20      4.34206     0.00000
  21      4.54021     0.00000
  22      4.86305     0.00000
  23      5.01475     0.00000


Total Charge:  -0.000000 electrons
Dipole Moment: [-0.08296238  0.25726877  0.2683358 ]

Forces in eV/Ang:
  0 O    -0.13051    0.37392    0.05073
  1 H    -0.00159   -0.02154   -0.06611
  2 H     0.12670   -0.34904    0.01304

Positions:
  0 O     5.2891    5.0620    5.0564
  1 H     5.3284    4.9378    6.0175
  2 H     5.0048    5.9617    4.9363

        .------------------------.  
       /|                        |  
      / |                        |  
     /  |                        |  
    /   |                        |  
   /    |                        |  
  /     |                        |  
 *      |                        |  
 |      |                        |  
 |      |                        |  
 |      |        H               |  
 |      |        O               |  
 |      |                        |  
 |      |                        |  
 |      .------------------------.  
 |     /                        /   
 |    /                        /    
 |   /                        /     
 |  /                        /      
 | /                        /       
 |/                        /        
 *------------------------*         

Unit Cell:
           Periodic     X           Y           Z      Points  Spacing
  --------------------------------------------------------------------
  1. axis:    no    10.312107    0.000000    0.000000    52     0.1983
  2. axis:    no     0.000000   10.960567    0.000000    56     0.1957
  3. axis:    no     0.000000    0.000000   11.010000    56     0.1966

O-setup:
  name   : Oxygen
  id     : c7d727ddbf81696289a2bba6bb064aec
  Z      : 8
  valence: 6
  core   : 2
  charge : 0.0
  file   : /fs/local/linux26_x86_64/appl/nano/gpaw/setups/0.8/O.PBE.gz
  cutoffs: 0.74(comp), 1.30(filt), 0.83(core), lmax=2
  valence states:
            energy   radius
    2s(2)  -23.961   0.741
    2p(4)   -9.029   0.741
    *s       3.251   0.741
    *p      18.182   0.741
    *d       0.000   0.741

Using partial waves for O as LCAO basis

H-setup:
  name   : Hydrogen
  id     : d65de229564ff8ea4db303e23b6d1ecf
  Z      : 1
  valence: 1
  core   : 0
  charge : 0.0
  file   : /fs/local/linux26_x86_64/appl/nano/gpaw/setups/0.8/H.PBE.gz
  cutoffs: 0.48(comp), 0.85(filt), 0.53(core), lmax=2
  valence states:
            energy   radius
    1s(1)   -6.494   0.476
    *s      20.717   0.476
    *p       0.000   0.476

Using partial waves for H as LCAO basis

Using the PBE Exchange-Correlation Functional.
Spin-Paired Calculation
Total Charge:      0.000000
Fermi Temperature: 0.000000
Mode: Finite-difference
Eigensolver:       rmm-diis
                   (3 nearest neighbors central finite-difference stencil)
Poisson Solver:    Jacobi
                   (3 nearest neighbors central finite-difference stencil)

Interpolation:     6th Order
Reference Energy:  -2065.833348

Gamma Point Calculation
Total number of cores used: 16
Domain Decomposition: 2 x 2 x 4
MatrixOperator buffer_size: default value or 
                            see value of nblock in input file
Diagonalizer layout: Serial LAPACK
Orthonormalizer layout: Serial LAPACK

Symmetries present: 1
1 k-point in the Irreducible Part of the Brillouin Zone (total: 1)
Linear Mixing Parameter:           0.25
Pulay Mixing with 3 Old Densities
No Damping of Long Wave Oscillations

Convergence Criteria:
Total Energy Change:           0.0005 eV / electron
Integral of Absolute Density Change:    0.0001 electrons
Integral of Absolute Eigenstate Change: 1e-09
Number of Bands in Calculation:         24
Bands to Converge:                      Occupied States Only
Number of Valence Electrons:            8
                     log10-error:    Total        Iterations:
           Time      WFS    Density  Energy       Fermi  Poisson
iter:   1  11:02:43  -0.9            -14.03963    0      12     
iter:   2  11:02:44  -2.1   -1.5     -14.38182    0      8      
iter:   3  11:02:45  -1.9   -1.6     -14.30711    0      11     
iter:   4  11:02:46  -2.9   -1.7     -14.32672    0      9      
iter:   5  11:02:46  -4.3   -2.4     -14.32970    0      6      
iter:   6  11:02:47  -4.9   -2.7     -14.32969    0      6      
iter:   7  11:02:48  -5.7   -3.1     -14.32974    0      4      
iter:   8  11:02:48  -5.8   -3.3     -14.32973    0      4      
iter:   9  11:02:49  -6.8   -3.7     -14.32971    0      3      
iter:  10  11:02:49  -7.2   -4.0     -14.32972    0      3      
iter:  11  11:02:50  -7.5   -4.2     -14.32971    0      2      
iter:  12  11:02:50  -8.3   -4.7     -14.32971    0      1      
iter:  13  11:02:51  -8.5   -4.8     -14.32971    0      2      
iter:  14  11:02:51  -9.5   -4.8     -14.32970    0      1      
------------------------------------
Converged After 14 Iterations.

Energy Contributions Relative to Reference Atoms:(reference = -2065.83335)
-------------------------
Kinetic:        +16.70905
Potential:      -18.38851
External:        +0.00000
XC:             -12.81248
Entropy (-ST):   -0.00000
Local:           +0.16224
-------------------------
Free Energy:    -14.32970
Zero Kelvin:    -14.32970

Fermi Level: -4.07640
 Band   Eigenvalues  Occupancy
   0    -25.37760     2.00000
   1    -13.22018     2.00000
   2     -9.32839     2.00000
   3     -7.26577     2.00000
   4     -0.88704     0.00000
   5      0.70023     0.00000
   6      1.22111     0.00000
   7      1.25377     0.00000
   8      2.15857     0.00000
   9      2.34310     0.00000
  10      2.45317     0.00000
  11      2.47800     0.00000
  12      2.56784     0.00000
  13      2.88349     0.00000
  14      3.49725     0.00000
  15      3.64831     0.00000
  16      3.91457     0.00000
  17      3.97301     0.00000
  18      4.12655     0.00000
  19      4.16685     0.00000
  20      4.34628     0.00000
  21      4.56806     0.00000
  22      4.87188     0.00000
  23      5.02327     0.00000


Total Charge:  -0.000000 electrons
Dipole Moment: [-0.07864347  0.24874572  0.26704729]

Forces in eV/Ang:
  0 O     0.40842   -1.27835   -0.11369
  1 H    -0.01635    0.02673    0.23775
  2 H    -0.37816    1.24712   -0.10407

Positions:
  0 O     5.2946    5.0490    5.0520
  1 H     5.3297    4.9404    6.0205
  2 H     4.9985    5.9715    4.9376

        .------------------------.  
       /|                        |  
      / |                        |  
     /  |                        |  
    /   |                        |  
   /    |                        |  
  /     |                        |  
 *      |                        |  
 |      |                        |  
 |      |                        |  
 |      |        H               |  
 |      |        O               |  
 |      |                        |  
 |      |                        |  
 |      .------------------------.  
 |     /                        /   
 |    /                        /    
 |   /                        /     
 |  /                        /      
 | /                        /       
 |/                        /        
 *------------------------*         

Unit Cell:
           Periodic     X           Y           Z      Points  Spacing
  --------------------------------------------------------------------
  1. axis:    no    10.312107    0.000000    0.000000    52     0.1983
  2. axis:    no     0.000000   10.960567    0.000000    56     0.1957
  3. axis:    no     0.000000    0.000000   11.010000    56     0.1966

O-setup:
  name   : Oxygen
  id     : c7d727ddbf81696289a2bba6bb064aec
  Z      : 8
  valence: 6
  core   : 2
  charge : 0.0
  file   : /fs/local/linux26_x86_64/appl/nano/gpaw/setups/0.8/O.PBE.gz
  cutoffs: 0.74(comp), 1.30(filt), 0.83(core), lmax=2
  valence states:
            energy   radius
    2s(2)  -23.961   0.741
    2p(4)   -9.029   0.741
    *s       3.251   0.741
    *p      18.182   0.741
    *d       0.000   0.741

Using partial waves for O as LCAO basis

H-setup:
  name   : Hydrogen
  id     : d65de229564ff8ea4db303e23b6d1ecf
  Z      : 1
  valence: 1
  core   : 0
  charge : 0.0
  file   : /fs/local/linux26_x86_64/appl/nano/gpaw/setups/0.8/H.PBE.gz
  cutoffs: 0.48(comp), 0.85(filt), 0.53(core), lmax=2
  valence states:
            energy   radius
    1s(1)   -6.494   0.476
    *s      20.717   0.476
    *p       0.000   0.476

Using partial waves for H as LCAO basis

Using the PBE Exchange-Correlation Functional.
Spin-Paired Calculation
Total Charge:      0.000000
Fermi Temperature: 0.000000
Mode: Finite-difference
Eigensolver:       rmm-diis
                   (3 nearest neighbors central finite-difference stencil)
Poisson Solver:    Jacobi
                   (3 nearest neighbors central finite-difference stencil)

Interpolation:     6th Order
Reference Energy:  -2065.833348

Gamma Point Calculation
Total number of cores used: 16
Domain Decomposition: 2 x 2 x 4
MatrixOperator buffer_size: default value or 
                            see value of nblock in input file
Diagonalizer layout: Serial LAPACK
Orthonormalizer layout: Serial LAPACK

Symmetries present: 1
1 k-point in the Irreducible Part of the Brillouin Zone (total: 1)
Linear Mixing Parameter:           0.25
Pulay Mixing with 3 Old Densities
No Damping of Long Wave Oscillations

Convergence Criteria:
Total Energy Change:           0.0005 eV / electron
Integral of Absolute Density Change:    0.0001 electrons
Integral of Absolute Eigenstate Change: 1e-09
Number of Bands in Calculation:         24
Bands to Converge:                      Occupied States Only
Number of Valence Electrons:            8
                     log10-error:    Total        Iterations:
           Time      WFS    Density  Energy       Fermi  Poisson
iter:   1  11:02:53  -1.2            -14.17898    0      12     
iter:   2  11:02:53  -2.3   -1.6     -14.37579    0      7      
iter:   3  11:02:54  -2.4   -1.7     -14.33165    0      10     
iter:   4  11:02:55  -3.5   -2.3     -14.34619    0      6      
iter:   5  11:02:55  -4.0   -2.6     -14.34636    0      6      
iter:   6  11:02:56  -4.6   -2.8     -14.34690    0      5      
iter:   7  11:02:57  -4.8   -2.7     -14.34637    0      5      
iter:   8  11:02:57  -5.7   -3.7     -14.34653    0      3      
iter:   9  11:02:58  -6.3   -3.7     -14.34658    0      3      
iter:  10  11:02:58  -7.4   -3.8     -14.34650    0      2      
iter:  11  11:02:59  -6.8   -3.9     -14.34650    0      3      
iter:  12  11:02:59  -7.7   -4.3     -14.34655    0      2      
iter:  13  11:03:00  -8.2   -4.6     -14.34655    0      2      
iter:  14  11:03:00  -9.1   -4.9     -14.34652    0      1      
------------------------------------
Converged After 14 Iterations.

Energy Contributions Relative to Reference Atoms:(reference = -2065.83335)
-------------------------
Kinetic:        +15.29917
Potential:      -17.37204
External:        +0.00000
XC:             -12.43674
Entropy (-ST):   -0.00000
Local:           +0.16309
-------------------------
Free Energy:    -14.34652
Zero Kelvin:    -14.34652

Fermi Level: -4.08965
 Band   Eigenvalues  Occupancy
   0    -25.23617     2.00000
   1    -13.00939     2.00000
   2     -9.38157     2.00000
   3     -7.24083     2.00000
   4     -0.93847     0.00000
   5      0.66746     0.00000
   6      1.21476     0.00000
   7      1.24787     0.00000
   8      2.13798     0.00000
   9      2.33651     0.00000
  10      2.43916     0.00000
  11      2.45702     0.00000
  12      2.54321     0.00000
  13      2.87928     0.00000
  14      3.45223     0.00000
  15      3.64483     0.00000
  16      3.90855     0.00000
  17      3.96705     0.00000
  18      4.11688     0.00000
  19      4.16386     0.00000
  20      4.34308     0.00000
  21      4.54690     0.00000
  22      4.86449     0.00000
  23      5.01493     0.00000


Total Charge:  -0.000000 electrons
Dipole Moment: [-0.08195275  0.2552871   0.26794324]

Forces in eV/Ang:
  0 O    -0.01183    0.00382    0.01134
  1 H    -0.00535   -0.00915    0.00798
  2 H     0.01521    0.00092   -0.00688
