
  ___ ___ ___ _ _ _  
 |   |   |_  | | | | 
 | | | | | . | | | | 
 |__ |  _|___|_____|  0.8.0.8313
 |___|_|             

User: pparkkin@nid01983
Date: Wed Aug  1 11:08:06 2012
Arch: x86_64
Pid:  16198
Dir:  /fs/local/linux26_x86_64/appl/nano/gpaw/0.8.0/lib/python/gpaw
ase:   /fs/local/linux26_x86_64/appl/nano/ASE/3.5.1/lib/python/ase  version:  3.5.1.2245
numpy: /fs/local/linux26_x86_64/opt/python/2.6.5-gcc/lib/python2.6/site-packages/numpy
units: Angstrom and eV

Memory estimate
---------------
Process memory now: 93.32 MiB
Calculator  17.91 MiB
    Density  4.88 MiB
        Arrays  1.87 MiB
        Localized functions  0.09 MiB
        Mixer  0.40 MiB
        Interpolator  2.52 MiB
    Hamiltonian  7.71 MiB
        Arrays  1.22 MiB
        Restrictor  1.36 MiB
        XC  0.00 MiB
        Poisson  5.12 MiB
        vbar  0.01 MiB
    Wavefunctions  5.32 MiB
        Arrays psit_nG  1.61 MiB
        Eigensolver  1.94 MiB
        Projectors  0.01 MiB
        Overlap op  1.61 MiB
        Kinetic operator  0.15 MiB

Positions:
  0 O     5.3121    5.0000    5.0000
  1 H     5.3121    5.0000    6.0100
  2 H     5.0000    5.9606    5.0000

        .------------------------.  
       /|                        |  
      / |                        |  
     /  |                        |  
    /   |                        |  
   /    |                        |  
  /     |                        |  
 *      |                        |  
 |      |                        |  
 |      |                        |  
 |      |        H               |  
 |      |        O               |  
 |      |                        |  
 |      |                        |  
 |      .------------------------.  
 |     /                        /   
 |    /                        /    
 |   /                        /     
 |  /                        /      
 | /                        /       
 |/                        /        
 *------------------------*         

Unit Cell:
           Periodic     X           Y           Z      Points  Spacing
  --------------------------------------------------------------------
  1. axis:    no    10.312107    0.000000    0.000000    52     0.1983
  2. axis:    no     0.000000   10.960567    0.000000    56     0.1957
  3. axis:    no     0.000000    0.000000   11.010000    56     0.1966

O-setup:
  name   : Oxygen
  id     : c7d727ddbf81696289a2bba6bb064aec
  Z      : 8
  valence: 6
  core   : 2
  charge : 0.0
  file   : /fs/local/linux26_x86_64/appl/nano/gpaw/setups/0.8/O.PBE.gz
  cutoffs: 0.74(comp), 1.30(filt), 0.83(core), lmax=2
  valence states:
            energy   radius
    2s(2)  -23.961   0.741
    2p(4)   -9.029   0.741
    *s       3.251   0.741
    *p      18.182   0.741
    *d       0.000   0.741

Using partial waves for O as LCAO basis

H-setup:
  name   : Hydrogen
  id     : d65de229564ff8ea4db303e23b6d1ecf
  Z      : 1
  valence: 1
  core   : 0
  charge : 0.0
  file   : /fs/local/linux26_x86_64/appl/nano/gpaw/setups/0.8/H.PBE.gz
  cutoffs: 0.48(comp), 0.85(filt), 0.53(core), lmax=2
  valence states:
            energy   radius
    1s(1)   -6.494   0.476
    *s      20.717   0.476
    *p       0.000   0.476

Using partial waves for H as LCAO basis

Using the PBE Exchange-Correlation Functional.
Spin-Paired Calculation
Total Charge:      0.000000
Fermi Temperature: 0.000000
Mode: Finite-difference
Eigensolver:       rmm-diis
                   (3 nearest neighbors central finite-difference stencil)
Poisson Solver:    Jacobi
                   (3 nearest neighbors central finite-difference stencil)

Interpolation:     6th Order
Reference Energy:  -2065.833348

Gamma Point Calculation
Total number of cores used: 16
Domain Decomposition: 2 x 2 x 4
MatrixOperator buffer_size: default value or 
                            see value of nblock in input file
Diagonalizer layout: Serial LAPACK
Orthonormalizer layout: Serial LAPACK

Symmetries present: 1
1 k-point in the Irreducible Part of the Brillouin Zone (total: 1)
Linear Mixing Parameter:           0.25
Pulay Mixing with 3 Old Densities
No Damping of Long Wave Oscillations

Convergence Criteria:
Total Energy Change:           0.0005 eV / electron
Integral of Absolute Density Change:    0.0001 electrons
Integral of Absolute Eigenstate Change: 1e-09
Number of Bands in Calculation:         24
Bands to Converge:                      Occupied States Only
Number of Valence Electrons:            8
                     log10-error:    Total        Iterations:
           Time      WFS    Density  Energy       Fermi  Poisson
iter:   1  11:08:09  +2.8            -12.32734    0      23     
iter:   2  11:08:09  -1.0            -15.61230    0             
iter:   3  11:08:09  -1.5            -15.84881    0             
iter:   4  11:08:10  -1.1   -0.8     -14.10781    0      13     
iter:   5  11:08:11  -1.6   -1.0     -14.10086    0      12     
iter:   6  11:08:12  -1.5   -1.2     -14.25745    0      9      
iter:   7  11:08:13  -2.3   -1.4     -14.17869    0      11     
iter:   8  11:08:14  -2.7   -2.1     -14.18369    0      7      
iter:   9  11:08:15  -3.6   -2.4     -14.19063    0      5      
iter:  10  11:08:15  -4.4   -2.4     -14.19110    0      4      
iter:  11  11:08:16  -4.0   -2.4     -14.19070    0      6      
iter:  12  11:08:17  -5.3   -2.6     -14.19080    0      5      
iter:  13  11:08:18  -4.9   -2.8     -14.19070    0      5      
iter:  14  11:08:18  -6.0   -3.3     -14.19083    0      3      
iter:  15  11:08:19  -5.3   -3.3     -14.19085    0      4      
iter:  16  11:08:20  -6.5   -3.5     -14.19074    0      3      
iter:  17  11:08:20  -6.0   -3.5     -14.19066    0      3      
iter:  18  11:08:21  -7.3   -4.1     -14.19088    0      1      
iter:  19  11:08:21  -7.1   -4.2     -14.19090    0      2      
iter:  20  11:08:22  -8.5   -4.4     -14.19063    0      1      
iter:  21  11:08:22  -7.3   -4.5     -14.19065    0      2      
iter:  22  11:08:23  -8.2   -4.4     -14.19106    0      1      
iter:  23  11:08:23  -8.7   -4.8     -14.19094    0      1      
iter:  24  11:08:24  -10.0  -5.5     -14.19078    0      1      
------------------------------------
Converged After 24 Iterations.

Energy Contributions Relative to Reference Atoms:(reference = -2065.83335)
-------------------------
Kinetic:        +12.87968
Potential:      -15.59323
External:        +0.00000
XC:             -11.64088
Entropy (-ST):   -0.00000
Local:           +0.16365
-------------------------
Free Energy:    -14.19078
Zero Kelvin:    -14.19078

Fermi Level: -4.18282
 Band   Eigenvalues  Occupancy
   0    -25.12047     2.00000
   1    -12.03764     2.00000
   2    -10.02785     2.00000
   3     -7.24271     2.00000
   4     -1.12293     0.00000
   5      0.60354     0.00000
   6      1.18895     0.00000
   7      1.22926     0.00000
   8      2.11082     0.00000
   9      2.31276     0.00000
  10      2.32782     0.00000
  11      2.38326     0.00000
  12      2.49979     0.00000
  13      2.87456     0.00000
  14      3.34054     0.00000
  15      3.64169     0.00000
  16      3.90590     0.00000
  17      3.95057     0.00000
  18      4.10272     0.00000
  19      4.17001     0.00000
  20      4.38238     0.00000
  21      4.49955     0.00000
  22      5.00120     0.00000
  23      5.27959     0.00000


Total Charge:  -0.000000 electrons
Dipole Moment: [-0.09176808  0.28221137  0.29668908]

Forces in eV/Ang:
  0 O    -0.65135    1.98934    2.11699
  1 H     0.29514   -0.92868   -1.14040
  2 H     0.35697   -1.07654   -0.97803

Positions:
  0 O     5.2506    5.1879    5.2000
  1 H     5.3400    4.9123    5.9023
  2 H     5.0337    5.8589    4.9076

        .------------------------.  
       /|                        |  
      / |                        |  
     /  |                        |  
    /   |                        |  
   /    |                        |  
  /     |                        |  
 *      |                        |  
 |      |                        |  
 |      |                        |  
 |      |        H               |  
 |      |        O               |  
 |      |                        |  
 |      |                        |  
 |      .------------------------.  
 |     /                        /   
 |    /                        /    
 |   /                        /     
 |  /                        /      
 | /                        /       
 |/                        /        
 *------------------------*         

Unit Cell:
           Periodic     X           Y           Z      Points  Spacing
  --------------------------------------------------------------------
  1. axis:    no    10.312107    0.000000    0.000000    52     0.1983
  2. axis:    no     0.000000   10.960567    0.000000    56     0.1957
  3. axis:    no     0.000000    0.000000   11.010000    56     0.1966

O-setup:
  name   : Oxygen
  id     : c7d727ddbf81696289a2bba6bb064aec
  Z      : 8
  valence: 6
  core   : 2
  charge : 0.0
  file   : /fs/local/linux26_x86_64/appl/nano/gpaw/setups/0.8/O.PBE.gz
  cutoffs: 0.74(comp), 1.30(filt), 0.83(core), lmax=2
  valence states:
            energy   radius
    2s(2)  -23.961   0.741
    2p(4)   -9.029   0.741
    *s       3.251   0.741
    *p      18.182   0.741
    *d       0.000   0.741

Using partial waves for O as LCAO basis

H-setup:
  name   : Hydrogen
  id     : d65de229564ff8ea4db303e23b6d1ecf
  Z      : 1
  valence: 1
  core   : 0
  charge : 0.0
  file   : /fs/local/linux26_x86_64/appl/nano/gpaw/setups/0.8/H.PBE.gz
  cutoffs: 0.48(comp), 0.85(filt), 0.53(core), lmax=2
  valence states:
            energy   radius
    1s(1)   -6.494   0.476
    *s      20.717   0.476
    *p       0.000   0.476

Using partial waves for H as LCAO basis

Using the PBE Exchange-Correlation Functional.
Spin-Paired Calculation
Total Charge:      0.000000
Fermi Temperature: 0.000000
Mode: Finite-difference
Eigensolver:       rmm-diis
                   (3 nearest neighbors central finite-difference stencil)
Poisson Solver:    Jacobi
                   (3 nearest neighbors central finite-difference stencil)

Interpolation:     6th Order
Reference Energy:  -2065.833348

Gamma Point Calculation
Total number of cores used: 16
Domain Decomposition: 2 x 2 x 4
MatrixOperator buffer_size: default value or 
                            see value of nblock in input file
Diagonalizer layout: Serial LAPACK
Orthonormalizer layout: Serial LAPACK

Symmetries present: 1
1 k-point in the Irreducible Part of the Brillouin Zone (total: 1)
Linear Mixing Parameter:           0.25
Pulay Mixing with 3 Old Densities
No Damping of Long Wave Oscillations

Convergence Criteria:
Total Energy Change:           0.0005 eV / electron
Integral of Absolute Density Change:    0.0001 electrons
Integral of Absolute Eigenstate Change: 1e-09
Number of Bands in Calculation:         24
Bands to Converge:                      Occupied States Only
Number of Valence Electrons:            8
                     log10-error:    Total        Iterations:
           Time      WFS    Density  Energy       Fermi  Poisson
iter:   1  11:08:25  +1.2             28.71190    0      19     
iter:   2  11:08:27  +0.6   -0.2     -14.52582    0      14     
iter:   3  11:08:28  +0.0   -0.4     -14.40790    0      16     
iter:   4  11:08:29  -0.0   -0.6     -8.28370     0      19     
iter:   5  11:08:30  -0.8   -1.0     -9.98791     0      15     
iter:   6  11:08:31  -1.7   -1.3     -10.15235    0      10     
iter:   7  11:08:32  -2.6   -1.6     -10.21810    0      8      
iter:   8  11:08:33  -3.1   -1.8     -10.21310    0      8      
iter:   9  11:08:34  -3.3   -2.0     -10.21105    0      7      
iter:  10  11:08:35  -3.8   -2.3     -10.21206    0      6      
iter:  11  11:08:35  -4.2   -2.6     -10.21229    0      5      
iter:  12  11:08:36  -4.7   -2.8     -10.21234    0      5      
iter:  13  11:08:37  -5.1   -3.1     -10.21236    0      4      
iter:  14  11:08:37  -5.9   -3.6     -10.21222    0      3      
iter:  15  11:08:38  -6.6   -3.8     -10.21227    0      2      
iter:  16  11:08:39  -7.1   -3.9     -10.21230    0      3      
iter:  17  11:08:39  -7.7   -4.5     -10.21220    0      1      
iter:  18  11:08:40  -8.0   -4.7     -10.21212    0      1      
iter:  19  11:08:40  -9.0   -5.1     -10.21230    0      1      
iter:  20  11:08:41  -8.8   -5.1     -10.21246    0      1      
iter:  21  11:08:41  -9.5   -5.1     -10.21233    0      1      
------------------------------------
Converged After 21 Iterations.

Energy Contributions Relative to Reference Atoms:(reference = -2065.83335)
-------------------------
Kinetic:        +46.04544
Potential:      -37.48377
External:        +0.00000
XC:             -18.92871
Entropy (-ST):   -0.00000
Local:           +0.15471
-------------------------
Free Energy:    -10.21233
Zero Kelvin:    -10.21233

Fermi Level: -4.04487
 Band   Eigenvalues  Occupancy
   0    -27.43455     2.00000
   1    -16.94080     2.00000
   2     -8.48778     2.00000
   3     -7.73385     2.00000
   4     -0.35589     0.00000
   5      0.92689     0.00000
   6      1.27449     0.00000
   7      1.32135     0.00000
   8      2.30187     0.00000
   9      2.41021     0.00000
  10      2.49556     0.00000
  11      2.74544     0.00000
  12      2.86548     0.00000
  13      2.98342     0.00000
  14      3.67291     0.00000
  15      3.78746     0.00000
  16      3.98120     0.00000
  17      4.04545     0.00000
  18      4.19905     0.00000
  19      4.24852     0.00000
  20      4.38048     0.00000
  21      4.81487     0.00000
  22      5.03247     0.00000
  23      5.14263     0.00000


Total Charge:  0.000000 electrons
Dipole Moment: [-0.05415296  0.16773058  0.1743798 ]

Forces in eV/Ang:
  0 O     4.17443  -13.03965  -14.74018
  1 H     2.45853   -7.59862   22.44920
  2 H    -6.65789   20.64931   -7.75369

Positions:
  0 O     5.3050    5.0217    5.0231
  1 H     5.3153    4.9899    5.9976
  2 H     5.0039    5.9488    4.9893

        .------------------------.  
       /|                        |  
      / |                        |  
     /  |                        |  
    /   |                        |  
   /    |                        |  
  /     |                        |  
 *      |                        |  
 |      |                        |  
 |      |                        |  
 |      |        H               |  
 |      |        O               |  
 |      |                        |  
 |      |                        |  
 |      .------------------------.  
 |     /                        /   
 |    /                        /    
 |   /                        /     
 |  /                        /      
 | /                        /       
 |/                        /        
 *------------------------*         

Unit Cell:
           Periodic     X           Y           Z      Points  Spacing
  --------------------------------------------------------------------
  1. axis:    no    10.312107    0.000000    0.000000    52     0.1983
  2. axis:    no     0.000000   10.960567    0.000000    56     0.1957
  3. axis:    no     0.000000    0.000000   11.010000    56     0.1966

O-setup:
  name   : Oxygen
  id     : c7d727ddbf81696289a2bba6bb064aec
  Z      : 8
  valence: 6
  core   : 2
  charge : 0.0
  file   : /fs/local/linux26_x86_64/appl/nano/gpaw/setups/0.8/O.PBE.gz
  cutoffs: 0.74(comp), 1.30(filt), 0.83(core), lmax=2
  valence states:
            energy   radius
    2s(2)  -23.961   0.741
    2p(4)   -9.029   0.741
    *s       3.251   0.741
    *p      18.182   0.741
    *d       0.000   0.741

Using partial waves for O as LCAO basis

H-setup:
  name   : Hydrogen
  id     : d65de229564ff8ea4db303e23b6d1ecf
  Z      : 1
  valence: 1
  core   : 0
  charge : 0.0
  file   : /fs/local/linux26_x86_64/appl/nano/gpaw/setups/0.8/H.PBE.gz
  cutoffs: 0.48(comp), 0.85(filt), 0.53(core), lmax=2
  valence states:
            energy   radius
    1s(1)   -6.494   0.476
    *s      20.717   0.476
    *p       0.000   0.476

Using partial waves for H as LCAO basis

Using the PBE Exchange-Correlation Functional.
Spin-Paired Calculation
Total Charge:      0.000000
Fermi Temperature: 0.000000
Mode: Finite-difference
Eigensolver:       rmm-diis
                   (3 nearest neighbors central finite-difference stencil)
Poisson Solver:    Jacobi
                   (3 nearest neighbors central finite-difference stencil)

Interpolation:     6th Order
Reference Energy:  -2065.833348

Gamma Point Calculation
Total number of cores used: 16
Domain Decomposition: 2 x 2 x 4
MatrixOperator buffer_size: default value or 
                            see value of nblock in input file
Diagonalizer layout: Serial LAPACK
Orthonormalizer layout: Serial LAPACK

Symmetries present: 1
1 k-point in the Irreducible Part of the Brillouin Zone (total: 1)
Linear Mixing Parameter:           0.25
Pulay Mixing with 3 Old Densities
No Damping of Long Wave Oscillations

Convergence Criteria:
Total Energy Change:           0.0005 eV / electron
Integral of Absolute Density Change:    0.0001 electrons
Integral of Absolute Eigenstate Change: 1e-09
Number of Bands in Calculation:         24
Bands to Converge:                      Occupied States Only
Number of Valence Electrons:            8
                     log10-error:    Total        Iterations:
           Time      WFS    Density  Energy       Fermi  Poisson
iter:   1  11:08:43  +0.9             18.48063    0      18     
iter:   2  11:08:44  +0.5   -0.2     -15.76295    0      23     
iter:   3  11:08:46  -0.4   -0.4     -21.00620    0      16     
iter:   4  11:08:47  +0.2   -0.5     -13.69298    0      21     
iter:   5  11:08:48  -0.7   -0.5     -17.24971    0      14     
iter:   6  11:08:49  -0.2   -0.6     -12.67407    0      15     
iter:   7  11:08:50  -1.1   -1.1     -14.01330    0      10     
iter:   8  11:08:52  -1.5   -1.2     -14.27541    0      14     
iter:   9  11:08:53  -2.6   -1.5     -14.29609    0      10     
iter:  10  11:08:54  -2.2   -1.7     -14.27026    0      11     
iter:  11  11:08:54  -3.1   -2.0     -14.28230    0      6      
iter:  12  11:08:55  -3.1   -2.2     -14.28245    0      9      
iter:  13  11:08:56  -3.2   -2.2     -14.28171    0      6      
iter:  14  11:08:57  -4.1   -2.4     -14.28231    0      6      
iter:  15  11:08:58  -4.9   -3.0     -14.28243    0      4      
iter:  16  11:08:58  -5.7   -3.1     -14.28267    0      3      
iter:  17  11:08:59  -6.2   -3.3     -14.28259    0      4      
iter:  18  11:08:59  -6.3   -3.6     -14.28248    0      3      
iter:  19  11:09:00  -7.3   -3.8     -14.28263    0      2      
iter:  20  11:09:01  -7.0   -4.0     -14.28258    0      3      
iter:  21  11:09:01  -7.2   -4.2     -14.28244    0      2      
iter:  22  11:09:02  -8.4   -4.4     -14.28272    0      1      
iter:  23  11:09:02  -8.8   -4.8     -14.28266    0      1      
iter:  24  11:09:03  -9.5   -5.1     -14.28257    0      1      
------------------------------------
Converged After 24 Iterations.

Energy Contributions Relative to Reference Atoms:(reference = -2065.83335)
-------------------------
Kinetic:        +15.80431
Potential:      -17.77196
External:        +0.00000
XC:             -12.47606
Entropy (-ST):   -0.00000
Local:           +0.16114
-------------------------
Free Energy:    -14.28257
Zero Kelvin:    -14.28257

Fermi Level: -4.13626
 Band   Eigenvalues  Occupancy
   0    -25.42892     2.00000
   1    -12.52553     2.00000
   2     -9.87053     2.00000
   3     -7.29045     2.00000
   4     -0.98208     0.00000
   5      0.69624     0.00000
   6      1.20639     0.00000
   7      1.24496     0.00000
   8      2.18114     0.00000
   9      2.33992     0.00000
  10      2.40247     0.00000
  11      2.42800     0.00000
  12      2.52816     0.00000
  13      2.88394     0.00000
  14      3.44929     0.00000
  15      3.64838     0.00000
  16      3.92049     0.00000
  17      3.96223     0.00000
  18      4.12189     0.00000
  19      4.16790     0.00000
  20      4.34904     0.00000
  21      4.52999     0.00000
  22      4.90060     0.00000
  23      5.04631     0.00000


Total Charge:  -0.000000 electrons
Dipole Moment: [-0.08881191  0.27321557  0.28709221]

Forces in eV/Ang:
  0 O    -0.18177    0.51615    0.52884
  1 H     0.23973   -0.76822    0.27563
  2 H    -0.07533    0.25393   -0.80430

Positions:
  0 O     5.2890    5.0655    5.0671
  1 H     5.3433    4.8999    6.0477
  2 H     4.9896    5.9954    4.8952

        .------------------------.  
       /|                        |  
      / |                        |  
     /  |                        |  
    /   |                        |  
   /    |                        |  
  /     |                        |  
 *      |                        |  
 |      |                        |  
 |      |                        |  
 |      |        H               |  
 |      |        O               |  
 |      |                        |  
 |      |                        |  
 |      .------------------------.  
 |     /                        /   
 |    /                        /    
 |   /                        /     
 |  /                        /      
 | /                        /       
 |/                        /        
 *------------------------*         

Unit Cell:
           Periodic     X           Y           Z      Points  Spacing
  --------------------------------------------------------------------
  1. axis:    no    10.312107    0.000000    0.000000    52     0.1983
  2. axis:    no     0.000000   10.960567    0.000000    56     0.1957
  3. axis:    no     0.000000    0.000000   11.010000    56     0.1966

O-setup:
  name   : Oxygen
  id     : c7d727ddbf81696289a2bba6bb064aec
  Z      : 8
  valence: 6
  core   : 2
  charge : 0.0
  file   : /fs/local/linux26_x86_64/appl/nano/gpaw/setups/0.8/O.PBE.gz
  cutoffs: 0.74(comp), 1.30(filt), 0.83(core), lmax=2
  valence states:
            energy   radius
    2s(2)  -23.961   0.741
    2p(4)   -9.029   0.741
    *s       3.251   0.741
    *p      18.182   0.741
    *d       0.000   0.741

Using partial waves for O as LCAO basis

H-setup:
  name   : Hydrogen
  id     : d65de229564ff8ea4db303e23b6d1ecf
  Z      : 1
  valence: 1
  core   : 0
  charge : 0.0
  file   : /fs/local/linux26_x86_64/appl/nano/gpaw/setups/0.8/H.PBE.gz
  cutoffs: 0.48(comp), 0.85(filt), 0.53(core), lmax=2
  valence states:
            energy   radius
    1s(1)   -6.494   0.476
    *s      20.717   0.476
    *p       0.000   0.476

Using partial waves for H as LCAO basis

Using the PBE Exchange-Correlation Functional.
Spin-Paired Calculation
Total Charge:      0.000000
Fermi Temperature: 0.000000
Mode: Finite-difference
Eigensolver:       rmm-diis
                   (3 nearest neighbors central finite-difference stencil)
Poisson Solver:    Jacobi
                   (3 nearest neighbors central finite-difference stencil)

Interpolation:     6th Order
Reference Energy:  -2065.833348

Gamma Point Calculation
Total number of cores used: 16
Domain Decomposition: 2 x 2 x 4
MatrixOperator buffer_size: default value or 
                            see value of nblock in input file
Diagonalizer layout: Serial LAPACK
Orthonormalizer layout: Serial LAPACK

Symmetries present: 1
1 k-point in the Irreducible Part of the Brillouin Zone (total: 1)
Linear Mixing Parameter:           0.25
Pulay Mixing with 3 Old Densities
No Damping of Long Wave Oscillations

Convergence Criteria:
Total Energy Change:           0.0005 eV / electron
Integral of Absolute Density Change:    0.0001 electrons
Integral of Absolute Eigenstate Change: 1e-09
Number of Bands in Calculation:         24
Bands to Converge:                      Occupied States Only
Number of Valence Electrons:            8
                     log10-error:    Total        Iterations:
           Time      WFS    Density  Energy       Fermi  Poisson
iter:   1  11:09:04  +0.0            -12.07030    0      15     
iter:   2  11:09:05  -1.1   -1.0     -14.52085    0      10     
iter:   3  11:09:06  -1.7   -1.1     -14.24923    0      12     
iter:   4  11:09:07  -2.2   -1.6     -14.26817    0      10     
iter:   5  11:09:08  -2.9   -2.0     -14.29773    0      7      
iter:   6  11:09:09  -3.5   -2.2     -14.29819    0      7      
iter:   7  11:09:09  -3.8   -2.4     -14.29814    0      6      
iter:   8  11:09:10  -4.6   -2.6     -14.29817    0      5      
iter:   9  11:09:11  -5.3   -3.2     -14.29819    0      4      
iter:  10  11:09:12  -5.3   -3.5     -14.29820    0      4      
iter:  11  11:09:12  -5.9   -3.3     -14.29814    0      4      
iter:  12  11:09:13  -6.5   -3.8     -14.29815    0      3      
iter:  13  11:09:13  -7.2   -4.1     -14.29816    0      3      
iter:  14  11:09:14  -8.3   -4.5     -14.29812    0      1      
iter:  15  11:09:15  -8.6   -4.7     -14.29811    0      1      
iter:  16  11:09:15  -9.2   -5.0     -14.29816    0      1      
------------------------------------
Converged After 16 Iterations.

Energy Contributions Relative to Reference Atoms:(reference = -2065.83335)
-------------------------
Kinetic:        +13.23516
Potential:      -15.75387
External:        +0.00000
XC:             -11.94671
Entropy (-ST):   -0.00000
Local:           +0.16725
-------------------------
Free Energy:    -14.29816
Zero Kelvin:    -14.29816

Fermi Level: -4.07920
 Band   Eigenvalues  Occupancy
   0    -24.92347     2.00000
   1    -13.13851     2.00000
   2     -9.02473     2.00000
   3     -7.16744     2.00000
   4     -0.99097     0.00000
   5      0.59965     0.00000
   6      1.21006     0.00000
   7      1.24277     0.00000
   8      2.05022     0.00000
   9      2.32037     0.00000
  10      2.43144     0.00000
  11      2.45947     0.00000
  12      2.53874     0.00000
  13      2.86970     0.00000
  14      3.40259     0.00000
  15      3.63660     0.00000
  16      3.87804     0.00000
  17      3.97121     0.00000
  18      4.09965     0.00000
  19      4.15569     0.00000
  20      4.33227     0.00000
  21      4.53890     0.00000
  22      4.82005     0.00000
  23      5.01309     0.00000


Total Charge:  -0.000000 electrons
Dipole Moment: [-0.07743985  0.24137074  0.25491218]

Forces in eV/Ang:
  0 O    -0.03706    0.11609    0.36903
  1 H    -0.21438    0.64961   -1.01460
  2 H     0.26496   -0.77975    0.63828

Positions:
  0 O     5.2964    5.0452    5.0466
  1 H     5.3303    4.9417    6.0244
  2 H     4.9963    5.9738    4.9389

        .------------------------.  
       /|                        |  
      / |                        |  
     /  |                        |  
    /   |                        |  
   /    |                        |  
  /     |                        |  
 *      |                        |  
 |      |                        |  
 |      |                        |  
 |      |        H               |  
 |      |        O               |  
 |      |                        |  
 |      |                        |  
 |      .------------------------.  
 |     /                        /   
 |    /                        /    
 |   /                        /     
 |  /                        /      
 | /                        /       
 |/                        /        
 *------------------------*         

Unit Cell:
           Periodic     X           Y           Z      Points  Spacing
  --------------------------------------------------------------------
  1. axis:    no    10.312107    0.000000    0.000000    52     0.1983
  2. axis:    no     0.000000   10.960567    0.000000    56     0.1957
  3. axis:    no     0.000000    0.000000   11.010000    56     0.1966

O-setup:
  name   : Oxygen
  id     : c7d727ddbf81696289a2bba6bb064aec
  Z      : 8
  valence: 6
  core   : 2
  charge : 0.0
  file   : /fs/local/linux26_x86_64/appl/nano/gpaw/setups/0.8/O.PBE.gz
  cutoffs: 0.74(comp), 1.30(filt), 0.83(core), lmax=2
  valence states:
            energy   radius
    2s(2)  -23.961   0.741
    2p(4)   -9.029   0.741
    *s       3.251   0.741
    *p      18.182   0.741
    *d       0.000   0.741

Using partial waves for O as LCAO basis

H-setup:
  name   : Hydrogen
  id     : d65de229564ff8ea4db303e23b6d1ecf
  Z      : 1
  valence: 1
  core   : 0
  charge : 0.0
  file   : /fs/local/linux26_x86_64/appl/nano/gpaw/setups/0.8/H.PBE.gz
  cutoffs: 0.48(comp), 0.85(filt), 0.53(core), lmax=2
  valence states:
            energy   radius
    1s(1)   -6.494   0.476
    *s      20.717   0.476
    *p       0.000   0.476

Using partial waves for H as LCAO basis

Using the PBE Exchange-Correlation Functional.
Spin-Paired Calculation
Total Charge:      0.000000
Fermi Temperature: 0.000000
Mode: Finite-difference
Eigensolver:       rmm-diis
                   (3 nearest neighbors central finite-difference stencil)
Poisson Solver:    Jacobi
                   (3 nearest neighbors central finite-difference stencil)

Interpolation:     6th Order
Reference Energy:  -2065.833348

Gamma Point Calculation
Total number of cores used: 16
Domain Decomposition: 2 x 2 x 4
MatrixOperator buffer_size: default value or 
                            see value of nblock in input file
Diagonalizer layout: Serial LAPACK
Orthonormalizer layout: Serial LAPACK

Symmetries present: 1
1 k-point in the Irreducible Part of the Brillouin Zone (total: 1)
Linear Mixing Parameter:           0.25
Pulay Mixing with 3 Old Densities
No Damping of Long Wave Oscillations

Convergence Criteria:
Total Energy Change:           0.0005 eV / electron
Integral of Absolute Density Change:    0.0001 electrons
Integral of Absolute Eigenstate Change: 1e-09
Number of Bands in Calculation:         24
Bands to Converge:                      Occupied States Only
Number of Valence Electrons:            8
                     log10-error:    Total        Iterations:
           Time      WFS    Density  Energy       Fermi  Poisson
iter:   1  11:09:16  -0.6            -13.81668    0      14     
iter:   2  11:09:17  -1.8   -1.3     -14.40522    0      9      
iter:   3  11:09:18  -1.6   -1.4     -14.33831    0      11     
iter:   4  11:09:19  -2.0   -1.5     -14.32319    0      10     
iter:   5  11:09:20  -3.3   -1.9     -14.34470    0      7      
iter:   6  11:09:21  -3.5   -2.2     -14.34290    0      7      
iter:   7  11:09:21  -4.5   -2.6     -14.34353    0      4      
iter:   8  11:09:22  -4.9   -2.8     -14.34346    0      5      
iter:   9  11:09:23  -5.8   -3.0     -14.34353    0      4      
iter:  10  11:09:24  -5.7   -3.1     -14.34357    0      4      
iter:  11  11:09:24  -6.5   -3.6     -14.34359    0      3      
iter:  12  11:09:25  -6.3   -3.8     -14.34360    0      3      
iter:  13  11:09:25  -6.9   -4.1     -14.34353    0      3      
iter:  14  11:09:26  -7.9   -4.4     -14.34359    0      2      
iter:  15  11:09:27  -8.8   -4.8     -14.34354    0      1      
iter:  16  11:09:27  -8.8   -5.0     -14.34341    0      1      
iter:  17  11:09:28  -10.0  -5.2     -14.34355    0      1      
------------------------------------
Converged After 17 Iterations.

Energy Contributions Relative to Reference Atoms:(reference = -2065.83335)
-------------------------
Kinetic:        +14.63707
Potential:      -16.88998
External:        +0.00000
XC:             -12.25418
Entropy (-ST):   -0.00000
Local:           +0.16354
-------------------------
Free Energy:    -14.34355
Zero Kelvin:    -14.34355

Fermi Level: -4.09744
 Band   Eigenvalues  Occupancy
   0    -25.16869     2.00000
   1    -12.90424     2.00000
   2     -9.41021     2.00000
   3     -7.22911     2.00000
   4     -0.96576     0.00000
   5      0.64979     0.00000
   6      1.21151     0.00000
   7      1.24480     0.00000
   8      2.12744     0.00000
   9      2.33332     0.00000
  10      2.43150     0.00000
  11      2.43984     0.00000
  12      2.53546     0.00000
  13      2.87737     0.00000
  14      3.42961     0.00000
  15      3.64336     0.00000
  16      3.90576     0.00000
  17      3.96396     0.00000
  18      4.11226     0.00000
  19      4.16244     0.00000
  20      4.34147     0.00000
  21      4.53673     0.00000
  22      4.86373     0.00000
  23      5.01708     0.00000


Total Charge:  0.000000 electrons
Dipole Moment: [-0.0829261   0.25675757  0.27041607]

Forces in eV/Ang:
  0 O    -0.08806    0.26813    0.40957
  1 H    -0.00823   -0.00176   -0.39550
  2 H     0.10134   -0.26904   -0.01277

Positions:
  0 O     5.2963    5.0443    5.0575
  1 H     5.3297    4.9404    6.0161
  2 H     4.9969    5.9761    4.9366

        .------------------------.  
       /|                        |  
      / |                        |  
     /  |                        |  
    /   |                        |  
   /    |                        |  
  /     |                        |  
 *      |                        |  
 |      |                        |  
 |      |                        |  
 |      |        H               |  
 |      |        O               |  
 |      |                        |  
 |      |                        |  
 |      .------------------------.  
 |     /                        /   
 |    /                        /    
 |   /                        /     
 |  /                        /      
 | /                        /       
 |/                        /        
 *------------------------*         

Unit Cell:
           Periodic     X           Y           Z      Points  Spacing
  --------------------------------------------------------------------
  1. axis:    no    10.312107    0.000000    0.000000    52     0.1983
  2. axis:    no     0.000000   10.960567    0.000000    56     0.1957
  3. axis:    no     0.000000    0.000000   11.010000    56     0.1966

O-setup:
  name   : Oxygen
  id     : c7d727ddbf81696289a2bba6bb064aec
  Z      : 8
  valence: 6
  core   : 2
  charge : 0.0
  file   : /fs/local/linux26_x86_64/appl/nano/gpaw/setups/0.8/O.PBE.gz
  cutoffs: 0.74(comp), 1.30(filt), 0.83(core), lmax=2
  valence states:
            energy   radius
    2s(2)  -23.961   0.741
    2p(4)   -9.029   0.741
    *s       3.251   0.741
    *p      18.182   0.741
    *d       0.000   0.741

Using partial waves for O as LCAO basis

H-setup:
  name   : Hydrogen
  id     : d65de229564ff8ea4db303e23b6d1ecf
  Z      : 1
  valence: 1
  core   : 0
  charge : 0.0
  file   : /fs/local/linux26_x86_64/appl/nano/gpaw/setups/0.8/H.PBE.gz
  cutoffs: 0.48(comp), 0.85(filt), 0.53(core), lmax=2
  valence states:
            energy   radius
    1s(1)   -6.494   0.476
    *s      20.717   0.476
    *p       0.000   0.476

Using partial waves for H as LCAO basis

Using the PBE Exchange-Correlation Functional.
Spin-Paired Calculation
Total Charge:      0.000000
Fermi Temperature: 0.000000
Mode: Finite-difference
Eigensolver:       rmm-diis
                   (3 nearest neighbors central finite-difference stencil)
Poisson Solver:    Jacobi
                   (3 nearest neighbors central finite-difference stencil)

Interpolation:     6th Order
Reference Energy:  -2065.833348

Gamma Point Calculation
Total number of cores used: 16
Domain Decomposition: 2 x 2 x 4
MatrixOperator buffer_size: default value or 
                            see value of nblock in input file
Diagonalizer layout: Serial LAPACK
Orthonormalizer layout: Serial LAPACK

Symmetries present: 1
1 k-point in the Irreducible Part of the Brillouin Zone (total: 1)
Linear Mixing Parameter:           0.25
Pulay Mixing with 3 Old Densities
No Damping of Long Wave Oscillations

Convergence Criteria:
Total Energy Change:           0.0005 eV / electron
Integral of Absolute Density Change:    0.0001 electrons
Integral of Absolute Eigenstate Change: 1e-09
Number of Bands in Calculation:         24
Bands to Converge:                      Occupied States Only
Number of Valence Electrons:            8
                     log10-error:    Total        Iterations:
           Time      WFS    Density  Energy       Fermi  Poisson
iter:   1  11:09:29  -1.4            -14.25200    0      11     
iter:   2  11:09:29  -2.6   -1.7     -14.35771    0      7      
iter:   3  11:09:30  -2.3   -1.8     -14.33667    0      10     
iter:   4  11:09:31  -3.2   -1.8     -14.33943    0      8      
iter:   5  11:09:32  -4.5   -2.6     -14.34078    0      5      
iter:   6  11:09:33  -5.2   -2.8     -14.34083    0      5      
iter:   7  11:09:33  -5.5   -3.3     -14.34086    0      4      
iter:   8  11:09:34  -5.9   -3.7     -14.34087    0      3      
iter:   9  11:09:35  -5.9   -3.7     -14.34083    0      3      
iter:  10  11:09:35  -6.8   -4.0     -14.34085    0      3      
iter:  11  11:09:36  -6.9   -3.8     -14.34086    0      3      
iter:  12  11:09:36  -7.9   -4.4     -14.34083    0      2      
iter:  13  11:09:37  -8.1   -4.5     -14.34082    0      2      
iter:  14  11:09:38  -8.3   -4.5     -14.34086    0      2      
iter:  15  11:09:38  -9.2   -4.8     -14.34081    0      1      
------------------------------------
Converged After 15 Iterations.

Energy Contributions Relative to Reference Atoms:(reference = -2065.83335)
-------------------------
Kinetic:        +15.30709
Potential:      -17.37401
External:        +0.00000
XC:             -12.43687
Entropy (-ST):   -0.00000
Local:           +0.16298
-------------------------
Free Energy:    -14.34081
Zero Kelvin:    -14.34081

Fermi Level: -4.09024
 Band   Eigenvalues  Occupancy
   0    -25.23605     2.00000
   1    -13.01210     2.00000
   2     -9.37731     2.00000
   3     -7.24037     2.00000
   4     -0.94010     0.00000
   5      0.66652     0.00000
   6      1.21473     0.00000
   7      1.24794     0.00000
   8      2.13378     0.00000
   9      2.33576     0.00000
  10      2.43456     0.00000
  11      2.46985     0.00000
  12      2.53927     0.00000
  13      2.87903     0.00000
  14      3.45003     0.00000
  15      3.64465     0.00000
  16      3.90861     0.00000
  17      3.96734     0.00000
  18      4.11674     0.00000
  19      4.16375     0.00000
  20      4.34316     0.00000
  21      4.54619     0.00000
  22      4.86691     0.00000
  23      5.01943     0.00000


Total Charge:  -0.000000 electrons
Dipole Moment: [-0.08307138  0.25831796  0.26439649]

Forces in eV/Ang:
  0 O    -0.20380    0.55627   -0.61183
  1 H     0.01286   -0.06226    0.55791
  2 H     0.17088   -0.48959    0.06212

Positions:
  0 O     5.2964    5.0449    5.0506
  1 H     5.3301    4.9412    6.0214
  2 H     4.9965    5.9746    4.9381

        .------------------------.  
       /|                        |  
      / |                        |  
     /  |                        |  
    /   |                        |  
   /    |                        |  
  /     |                        |  
 *      |                        |  
 |      |                        |  
 |      |                        |  
 |      |        H               |  
 |      |        O               |  
 |      |                        |  
 |      |                        |  
 |      .------------------------.  
 |     /                        /   
 |    /                        /    
 |   /                        /     
 |  /                        /      
 | /                        /       
 |/                        /        
 *------------------------*         

Unit Cell:
           Periodic     X           Y           Z      Points  Spacing
  --------------------------------------------------------------------
  1. axis:    no    10.312107    0.000000    0.000000    52     0.1983
  2. axis:    no     0.000000   10.960567    0.000000    56     0.1957
  3. axis:    no     0.000000    0.000000   11.010000    56     0.1966

O-setup:
  name   : Oxygen
  id     : c7d727ddbf81696289a2bba6bb064aec
  Z      : 8
  valence: 6
  core   : 2
  charge : 0.0
  file   : /fs/local/linux26_x86_64/appl/nano/gpaw/setups/0.8/O.PBE.gz
  cutoffs: 0.74(comp), 1.30(filt), 0.83(core), lmax=2
  valence states:
            energy   radius
    2s(2)  -23.961   0.741
    2p(4)   -9.029   0.741
    *s       3.251   0.741
    *p      18.182   0.741
    *d       0.000   0.741

Using partial waves for O as LCAO basis

H-setup:
  name   : Hydrogen
  id     : d65de229564ff8ea4db303e23b6d1ecf
  Z      : 1
  valence: 1
  core   : 0
  charge : 0.0
  file   : /fs/local/linux26_x86_64/appl/nano/gpaw/setups/0.8/H.PBE.gz
  cutoffs: 0.48(comp), 0.85(filt), 0.53(core), lmax=2
  valence states:
            energy   radius
    1s(1)   -6.494   0.476
    *s      20.717   0.476
    *p       0.000   0.476

Using partial waves for H as LCAO basis

Using the PBE Exchange-Correlation Functional.
Spin-Paired Calculation
Total Charge:      0.000000
Fermi Temperature: 0.000000
Mode: Finite-difference
Eigensolver:       rmm-diis
                   (3 nearest neighbors central finite-difference stencil)
Poisson Solver:    Jacobi
                   (3 nearest neighbors central finite-difference stencil)

Interpolation:     6th Order
Reference Energy:  -2065.833348

Gamma Point Calculation
Total number of cores used: 16
Domain Decomposition: 2 x 2 x 4
MatrixOperator buffer_size: default value or 
                            see value of nblock in input file
Diagonalizer layout: Serial LAPACK
Orthonormalizer layout: Serial LAPACK

Symmetries present: 1
1 k-point in the Irreducible Part of the Brillouin Zone (total: 1)
Linear Mixing Parameter:           0.25
Pulay Mixing with 3 Old Densities
No Damping of Long Wave Oscillations

Convergence Criteria:
Total Energy Change:           0.0005 eV / electron
Integral of Absolute Density Change:    0.0001 electrons
Integral of Absolute Eigenstate Change: 1e-09
Number of Bands in Calculation:         24
Bands to Converge:                      Occupied States Only
Number of Valence Electrons:            8
                     log10-error:    Total        Iterations:
           Time      WFS    Density  Energy       Fermi  Poisson
iter:   1  11:09:39  -1.8            -14.30850    0      11     
iter:   2  11:09:40  -2.9   -1.9     -14.35170    0      6      
iter:   3  11:09:41  -2.8   -2.0     -14.34149    0      9      
iter:   4  11:09:42  -3.9   -2.2     -14.34478    0      6      
iter:   5  11:09:42  -4.8   -2.8     -14.34475    0      5      
iter:   6  11:09:43  -5.9   -3.1     -14.34486    0      5      
iter:   7  11:09:44  -6.1   -3.5     -14.34483    0      4      
iter:   8  11:09:44  -6.7   -4.0     -14.34485    0      2      
iter:   9  11:09:45  -6.6   -4.0     -14.34487    0      3      
iter:  10  11:09:46  -7.8   -3.8     -14.34481    0      2      
iter:  11  11:09:46  -7.3   -4.0     -14.34484    0      3      
iter:  12  11:09:47  -8.1   -4.7     -14.34487    0      1      
iter:  13  11:09:47  -8.5   -5.0     -14.34486    0      2      
iter:  14  11:09:48  -9.5   -4.6     -14.34486    0      1      
------------------------------------
Converged After 14 Iterations.

Energy Contributions Relative to Reference Atoms:(reference = -2065.83335)
-------------------------
Kinetic:        +14.87133
Potential:      -17.06015
External:        +0.00000
XC:             -12.31943
Entropy (-ST):   -0.00000
Local:           +0.16340
-------------------------
Free Energy:    -14.34486
Zero Kelvin:    -14.34486

Fermi Level: -4.09457
 Band   Eigenvalues  Occupancy
   0    -25.19255     2.00000
   1    -12.94347     2.00000
   2     -9.39828     2.00000
   3     -7.23319     2.00000
   4     -0.95596     0.00000
   5      0.65606     0.00000
   6      1.21268     0.00000
   7      1.24594     0.00000
   8      2.13025     0.00000
   9      2.33420     0.00000
  10      2.43317     0.00000
  11      2.45065     0.00000
  12      2.53637     0.00000
  13      2.87796     0.00000
  14      3.43711     0.00000
  15      3.64378     0.00000
  16      3.90671     0.00000
  17      3.96514     0.00000
  18      4.11386     0.00000
  19      4.16291     0.00000
  20      4.34206     0.00000
  21      4.54020     0.00000
  22      4.86302     0.00000
  23      5.01479     0.00000


Total Charge:  -0.000000 electrons
Dipole Moment: [-0.08296348  0.25727196  0.26833184]

Forces in eV/Ang:
  0 O    -0.13047    0.37380    0.05106
  1 H    -0.00157   -0.02160   -0.06606
  2 H     0.12668   -0.34898    0.01302

Positions:
  0 O     5.2891    5.0620    5.0565
  1 H     5.3284    4.9378    6.0175
  2 H     5.0048    5.9617    4.9363

        .------------------------.  
       /|                        |  
      / |                        |  
     /  |                        |  
    /   |                        |  
   /    |                        |  
  /     |                        |  
 *      |                        |  
 |      |                        |  
 |      |                        |  
 |      |        H               |  
 |      |        O               |  
 |      |                        |  
 |      |                        |  
 |      .------------------------.  
 |     /                        /   
 |    /                        /    
 |   /                        /     
 |  /                        /      
 | /                        /       
 |/                        /        
 *------------------------*         

Unit Cell:
           Periodic     X           Y           Z      Points  Spacing
  --------------------------------------------------------------------
  1. axis:    no    10.312107    0.000000    0.000000    52     0.1983
  2. axis:    no     0.000000   10.960567    0.000000    56     0.1957
  3. axis:    no     0.000000    0.000000   11.010000    56     0.1966

O-setup:
  name   : Oxygen
  id     : c7d727ddbf81696289a2bba6bb064aec
  Z      : 8
  valence: 6
  core   : 2
  charge : 0.0
  file   : /fs/local/linux26_x86_64/appl/nano/gpaw/setups/0.8/O.PBE.gz
  cutoffs: 0.74(comp), 1.30(filt), 0.83(core), lmax=2
  valence states:
            energy   radius
    2s(2)  -23.961   0.741
    2p(4)   -9.029   0.741
    *s       3.251   0.741
    *p      18.182   0.741
    *d       0.000   0.741

Using partial waves for O as LCAO basis

H-setup:
  name   : Hydrogen
  id     : d65de229564ff8ea4db303e23b6d1ecf
  Z      : 1
  valence: 1
  core   : 0
  charge : 0.0
  file   : /fs/local/linux26_x86_64/appl/nano/gpaw/setups/0.8/H.PBE.gz
  cutoffs: 0.48(comp), 0.85(filt), 0.53(core), lmax=2
  valence states:
            energy   radius
    1s(1)   -6.494   0.476
    *s      20.717   0.476
    *p       0.000   0.476

Using partial waves for H as LCAO basis

Using the PBE Exchange-Correlation Functional.
Spin-Paired Calculation
Total Charge:      0.000000
Fermi Temperature: 0.000000
Mode: Finite-difference
Eigensolver:       rmm-diis
                   (3 nearest neighbors central finite-difference stencil)
Poisson Solver:    Jacobi
                   (3 nearest neighbors central finite-difference stencil)

Interpolation:     6th Order
Reference Energy:  -2065.833348

Gamma Point Calculation
Total number of cores used: 16
Domain Decomposition: 2 x 2 x 4
MatrixOperator buffer_size: default value or 
                            see value of nblock in input file
Diagonalizer layout: Serial LAPACK
Orthonormalizer layout: Serial LAPACK

Symmetries present: 1
1 k-point in the Irreducible Part of the Brillouin Zone (total: 1)
Linear Mixing Parameter:           0.25
Pulay Mixing with 3 Old Densities
No Damping of Long Wave Oscillations

Convergence Criteria:
Total Energy Change:           0.0005 eV / electron
Integral of Absolute Density Change:    0.0001 electrons
Integral of Absolute Eigenstate Change: 1e-09
Number of Bands in Calculation:         24
Bands to Converge:                      Occupied States Only
Number of Valence Electrons:            8
                     log10-error:    Total        Iterations:
           Time      WFS    Density  Energy       Fermi  Poisson
iter:   1  11:09:49  -0.9            -14.03955    0      12     
iter:   2  11:09:50  -2.1   -1.5     -14.38183    0      8      
iter:   3  11:09:51  -1.9   -1.6     -14.30711    0      11     
iter:   4  11:09:52  -2.9   -1.7     -14.32672    0      9      
iter:   5  11:09:52  -4.3   -2.4     -14.32970    0      6      
iter:   6  11:09:53  -4.9   -2.7     -14.32969    0      6      
iter:   7  11:09:54  -5.7   -3.1     -14.32974    0      4      
iter:   8  11:09:55  -5.8   -3.3     -14.32973    0      4      
iter:   9  11:09:55  -6.8   -3.7     -14.32971    0      3      
iter:  10  11:09:56  -7.2   -4.0     -14.32973    0      3      
iter:  11  11:09:56  -7.5   -4.2     -14.32971    0      2      
iter:  12  11:09:57  -8.3   -4.7     -14.32971    0      1      
iter:  13  11:09:58  -8.5   -4.8     -14.32971    0      2      
iter:  14  11:09:58  -9.5   -4.8     -14.32970    0      1      
------------------------------------
Converged After 14 Iterations.

Energy Contributions Relative to Reference Atoms:(reference = -2065.83335)
-------------------------
Kinetic:        +16.70899
Potential:      -18.38845
External:        +0.00000
XC:             -12.81248
Entropy (-ST):   -0.00000
Local:           +0.16224
-------------------------
Free Energy:    -14.32970
Zero Kelvin:    -14.32970

Fermi Level: -4.07640
 Band   Eigenvalues  Occupancy
   0    -25.37758     2.00000
   1    -13.22022     2.00000
   2     -9.32835     2.00000
   3     -7.26576     2.00000
   4     -0.88703     0.00000
   5      0.70023     0.00000
   6      1.22112     0.00000
   7      1.25377     0.00000
   8      2.15856     0.00000
   9      2.34310     0.00000
  10      2.45317     0.00000
  11      2.47801     0.00000
  12      2.56784     0.00000
  13      2.88349     0.00000
  14      3.49725     0.00000
  15      3.64831     0.00000
  16      3.91457     0.00000
  17      3.97301     0.00000
  18      4.12655     0.00000
  19      4.16685     0.00000
  20      4.34628     0.00000
  21      4.56804     0.00000
  22      4.87186     0.00000
  23      5.02331     0.00000


Total Charge:  -0.000000 electrons
Dipole Moment: [-0.07864354  0.24874614  0.26704323]

Forces in eV/Ang:
  0 O     0.40840   -1.27828   -0.11383
  1 H    -0.01637    0.02679    0.23780
  2 H    -0.37812    1.24699   -0.10400

Positions:
  0 O     5.2946    5.0490    5.0520
  1 H     5.3297    4.9404    6.0205
  2 H     4.9985    5.9715    4.9376

        .------------------------.  
       /|                        |  
      / |                        |  
     /  |                        |  
    /   |                        |  
   /    |                        |  
  /     |                        |  
 *      |                        |  
 |      |                        |  
 |      |                        |  
 |      |        H               |  
 |      |        O               |  
 |      |                        |  
 |      |                        |  
 |      .------------------------.  
 |     /                        /   
 |    /                        /    
 |   /                        /     
 |  /                        /      
 | /                        /       
 |/                        /        
 *------------------------*         

Unit Cell:
           Periodic     X           Y           Z      Points  Spacing
  --------------------------------------------------------------------
  1. axis:    no    10.312107    0.000000    0.000000    52     0.1983
  2. axis:    no     0.000000   10.960567    0.000000    56     0.1957
  3. axis:    no     0.000000    0.000000   11.010000    56     0.1966

O-setup:
  name   : Oxygen
  id     : c7d727ddbf81696289a2bba6bb064aec
  Z      : 8
  valence: 6
  core   : 2
  charge : 0.0
  file   : /fs/local/linux26_x86_64/appl/nano/gpaw/setups/0.8/O.PBE.gz
  cutoffs: 0.74(comp), 1.30(filt), 0.83(core), lmax=2
  valence states:
            energy   radius
    2s(2)  -23.961   0.741
    2p(4)   -9.029   0.741
    *s       3.251   0.741
    *p      18.182   0.741
    *d       0.000   0.741

Using partial waves for O as LCAO basis

H-setup:
  name   : Hydrogen
  id     : d65de229564ff8ea4db303e23b6d1ecf
  Z      : 1
  valence: 1
  core   : 0
  charge : 0.0
  file   : /fs/local/linux26_x86_64/appl/nano/gpaw/setups/0.8/H.PBE.gz
  cutoffs: 0.48(comp), 0.85(filt), 0.53(core), lmax=2
  valence states:
            energy   radius
    1s(1)   -6.494   0.476
    *s      20.717   0.476
    *p       0.000   0.476

Using partial waves for H as LCAO basis

Using the PBE Exchange-Correlation Functional.
Spin-Paired Calculation
Total Charge:      0.000000
Fermi Temperature: 0.000000
Mode: Finite-difference
Eigensolver:       rmm-diis
                   (3 nearest neighbors central finite-difference stencil)
Poisson Solver:    Jacobi
                   (3 nearest neighbors central finite-difference stencil)

Interpolation:     6th Order
Reference Energy:  -2065.833348

Gamma Point Calculation
Total number of cores used: 16
Domain Decomposition: 2 x 2 x 4
MatrixOperator buffer_size: default value or 
                            see value of nblock in input file
Diagonalizer layout: Serial LAPACK
Orthonormalizer layout: Serial LAPACK

Symmetries present: 1
1 k-point in the Irreducible Part of the Brillouin Zone (total: 1)
Linear Mixing Parameter:           0.25
Pulay Mixing with 3 Old Densities
No Damping of Long Wave Oscillations

Convergence Criteria:
Total Energy Change:           0.0005 eV / electron
Integral of Absolute Density Change:    0.0001 electrons
Integral of Absolute Eigenstate Change: 1e-09
Number of Bands in Calculation:         24
Bands to Converge:                      Occupied States Only
Number of Valence Electrons:            8
                     log10-error:    Total        Iterations:
           Time      WFS    Density  Energy       Fermi  Poisson
iter:   1  11:09:59  -1.2            -14.17894    0      12     
iter:   2  11:10:00  -2.3   -1.6     -14.37579    0      7      
iter:   3  11:10:01  -2.4   -1.7     -14.33165    0      10     
iter:   4  11:10:02  -3.5   -2.3     -14.34619    0      6      
iter:   5  11:10:03  -4.0   -2.6     -14.34636    0      6      
iter:   6  11:10:03  -4.6   -2.8     -14.34690    0      5      
iter:   7  11:10:04  -4.8   -2.7     -14.34637    0      5      
iter:   8  11:10:05  -5.7   -3.7     -14.34653    0      3      
iter:   9  11:10:05  -6.3   -3.7     -14.34658    0      3      
iter:  10  11:10:06  -7.4   -3.8     -14.34650    0      2      
iter:  11  11:10:06  -6.8   -3.9     -14.34650    0      3      
iter:  12  11:10:07  -7.7   -4.3     -14.34655    0      2      
iter:  13  11:10:08  -8.2   -4.6     -14.34655    0      2      
iter:  14  11:10:08  -9.1   -4.9     -14.34652    0      1      
------------------------------------
Converged After 14 Iterations.

Energy Contributions Relative to Reference Atoms:(reference = -2065.83335)
-------------------------
Kinetic:        +15.29932
Potential:      -17.37215
External:        +0.00000
XC:             -12.43677
Entropy (-ST):   -0.00000
Local:           +0.16309
-------------------------
Free Energy:    -14.34652
Zero Kelvin:    -14.34652

Fermi Level: -4.08965
 Band   Eigenvalues  Occupancy
   0    -25.23619     2.00000
   1    -13.00939     2.00000
   2     -9.38158     2.00000
   3     -7.24083     2.00000
   4     -0.93847     0.00000
   5      0.66746     0.00000
   6      1.21476     0.00000
   7      1.24787     0.00000
   8      2.13799     0.00000
   9      2.33651     0.00000
  10      2.43916     0.00000
  11      2.45702     0.00000
  12      2.54321     0.00000
  13      2.87928     0.00000
  14      3.45223     0.00000
  15      3.64483     0.00000
  16      3.90856     0.00000
  17      3.96705     0.00000
  18      4.11689     0.00000
  19      4.16386     0.00000
  20      4.34308     0.00000
  21      4.54689     0.00000
  22      4.86449     0.00000
  23      5.01500     0.00000


Total Charge:  -0.000000 electrons
Dipole Moment: [-0.08195295  0.25528746  0.26794339]

Forces in eV/Ang:
  0 O    -0.01181    0.00375    0.01128
  1 H    -0.00535   -0.00917    0.00805
  2 H     0.01519    0.00097   -0.00691
