
  ___ ___ ___ _ _ _  
 |   |   |_  | | | | 
 | | | | | . | | | | 
 |__ |  _|___|_____|  0.8.0.8313
 |___|_|             

User: pparkkin@nid02388
Date: Wed Aug  1 11:04:06 2012
Arch: x86_64
Pid:  19683
Dir:  /fs/local/linux26_x86_64/appl/nano/gpaw/0.8.0/lib/python/gpaw
ase:   /fs/local/linux26_x86_64/appl/nano/ASE/3.5.1/lib/python/ase  version:  3.5.1.2245
numpy: /fs/local/linux26_x86_64/opt/python/2.6.5-gcc/lib/python2.6/site-packages/numpy
units: Angstrom and eV

Memory estimate
---------------
Process memory now: 93.42 MiB
Calculator  17.91 MiB
    Density  4.88 MiB
        Arrays  1.87 MiB
        Localized functions  0.09 MiB
        Mixer  0.40 MiB
        Interpolator  2.52 MiB
    Hamiltonian  7.71 MiB
        Arrays  1.22 MiB
        Restrictor  1.36 MiB
        XC  0.00 MiB
        Poisson  5.12 MiB
        vbar  0.01 MiB
    Wavefunctions  5.32 MiB
        Arrays psit_nG  1.61 MiB
        Eigensolver  1.94 MiB
        Projectors  0.01 MiB
        Overlap op  1.61 MiB
        Kinetic operator  0.15 MiB

Positions:
  0 O     5.3121    5.0000    5.0000
  1 H     5.3121    5.0000    6.0100
  2 H     5.0000    5.9606    5.0000

        .------------------------.  
       /|                        |  
      / |                        |  
     /  |                        |  
    /   |                        |  
   /    |                        |  
  /     |                        |  
 *      |                        |  
 |      |                        |  
 |      |                        |  
 |      |        H               |  
 |      |        O               |  
 |      |                        |  
 |      |                        |  
 |      .------------------------.  
 |     /                        /   
 |    /                        /    
 |   /                        /     
 |  /                        /      
 | /                        /       
 |/                        /        
 *------------------------*         

Unit Cell:
           Periodic     X           Y           Z      Points  Spacing
  --------------------------------------------------------------------
  1. axis:    no    10.312107    0.000000    0.000000    52     0.1983
  2. axis:    no     0.000000   10.960567    0.000000    56     0.1957
  3. axis:    no     0.000000    0.000000   11.010000    56     0.1966

O-setup:
  name   : Oxygen
  id     : 67c3882fbc6f3c92bc2234e8514132d8
  Z      : 8
  valence: 6
  core   : 2
  charge : 0.0
  file   : /fs/local/linux26_x86_64/appl/nano/gpaw/setups/0.8/O.revPBE.gz
  cutoffs: 0.74(comp), 1.30(filt), 0.83(core), lmax=2
  valence states:
            energy   radius
    2s(2)  -23.998   0.741
    2p(4)   -8.969   0.741
    *s       3.214   0.741
    *p      18.243   0.741
    *d       0.000   0.741

Using partial waves for O as LCAO basis

H-setup:
  name   : Hydrogen
  id     : 3c6a698a8690aeeacbc6041f547121c6
  Z      : 1
  valence: 1
  core   : 0
  charge : 0.0
  file   : /fs/local/linux26_x86_64/appl/nano/gpaw/setups/0.8/H.revPBE.gz
  cutoffs: 0.48(comp), 0.85(filt), 0.53(core), lmax=2
  valence states:
            energy   radius
    1s(1)   -6.547   0.476
    *s      20.664   0.476
    *p       0.000   0.476

Using partial waves for H as LCAO basis

Using the vdW-DF2 Exchange-Correlation Functional.
Spin-Paired Calculation
Total Charge:      0.000000
Fermi Temperature: 0.000000
Mode: Finite-difference
Eigensolver:       rmm-diis
                   (3 nearest neighbors central finite-difference stencil)
Poisson Solver:    Jacobi
                   (3 nearest neighbors central finite-difference stencil)

Interpolation:     6th Order
Reference Energy:  -2067.756486

Gamma Point Calculation
Total number of cores used: 16
Domain Decomposition: 2 x 2 x 4
MatrixOperator buffer_size: default value or 
                            see value of nblock in input file
Diagonalizer layout: Serial LAPACK
Orthonormalizer layout: Serial LAPACK

Symmetries present: 1
1 k-point in the Irreducible Part of the Brillouin Zone (total: 1)
Linear Mixing Parameter:           0.25
Pulay Mixing with 3 Old Densities
No Damping of Long Wave Oscillations

Convergence Criteria:
Total Energy Change:           0.0005 eV / electron
Integral of Absolute Density Change:    0.0001 electrons
Integral of Absolute Eigenstate Change: 1e-09
Number of Bands in Calculation:         24
Bands to Converge:                      Occupied States Only
Number of Valence Electrons:            8
                     log10-error:    Total        Iterations:
           Time      WFS    Density  Energy       Fermi  Poisson
iter:   1  11:04:19  +2.8            -21.46786    0      22     
iter:   2  11:04:19  -1.0            -24.84311    0             
iter:   3  11:04:19  -1.3            -25.11503    0             
iter:   4  11:04:26  -1.0   -0.8     -23.03008    0      13     
iter:   5  11:04:34  -1.5   -1.0     -23.05980    0      12     
iter:   6  11:04:41  -1.4   -1.2     -23.23919    0      9      
iter:   7  11:04:48  -2.2   -1.4     -23.13785    0      11     
iter:   8  11:04:55  -2.6   -2.0     -23.14330    0      7      
iter:   9  11:05:02  -3.5   -2.3     -23.15249    0      5      
iter:  10  11:05:09  -4.2   -2.4     -23.15288    0      4      
iter:  11  11:05:16  -4.4   -2.5     -23.15263    0      5      
iter:  12  11:05:23  -4.7   -2.8     -23.15266    0      5      
iter:  13  11:05:30  -4.4   -2.9     -23.15259    0      4      
iter:  14  11:05:37  -4.5   -3.2     -23.15264    0      3      
iter:  15  11:05:44  -4.3   -3.4     -23.15262    0      4      
iter:  16  11:05:51  -4.8   -4.0     -23.15264    0      2      
iter:  17  11:05:58  -4.6   -4.5     -23.15260    0      2      
iter:  18  11:06:04  -4.5   -4.8     -23.15253    0      1      
iter:  19  11:06:11  -4.7   -4.9     -23.15260    0      1      
iter:  20  11:06:18  -5.4   -5.1     -23.15262    0      1      
iter:  21  11:06:25  -5.9   -5.1     -23.15262    0      1      
iter:  22  11:06:32  -5.7   -5.2     -23.15264    0      1      
iter:  23  11:06:39  -5.9   -5.2     -23.15264    0      1      
iter:  24  11:06:46  -5.7   -5.5     -23.15262    0      1      
iter:  25  11:06:52  -5.5   -5.4     -23.15262    0      1      
iter:  26  11:06:59  -6.4   -5.6     -23.15262    0      1      
iter:  27  11:07:06  -6.0   -5.9     -23.15262    0      1      
iter:  28  11:07:13  -5.9   -5.9     -23.15262    0      1      
iter:  29  11:07:20  -5.8   -6.1     -23.15262    0      1      
iter:  30  11:07:27  -6.5   -6.0     -23.15262    0      1      
iter:  31  11:07:33  -6.4   -5.8     -23.15262    0      1      
iter:  32  11:07:40  -6.1   -6.2     -23.15262    0      1      
iter:  33  11:07:47  -5.9   -6.4     -23.15262    0      1      
iter:  34  11:07:54  -6.9   -6.0     -23.15262    0      1      
iter:  35  11:08:01  -6.2   -5.8     -23.15262    0      1      
iter:  36  11:08:08  -6.4   -6.3     -23.15262    0      1      
iter:  37  11:08:15  -5.7   -6.3     -23.15262    0      1      
iter:  38  11:08:21  -7.1   -6.0     -23.15262    0      1      
iter:  39  11:08:28  -6.1   -5.9     -23.15262    0      1      
iter:  40  11:08:35  -5.6   -6.5     -23.15262    0      1      
iter:  41  11:08:42  -6.5   -6.0     -23.15262    0      1      
iter:  42  11:08:49  -7.1   -6.2     -23.15262    0      1      
iter:  43  11:08:56  -5.5   -6.2     -23.15262    0      1      
iter:  44  11:09:02  -6.3   -6.1     -23.15262    0      1      
iter:  45  11:09:09  -6.8   -6.1     -23.15262    0      1      
iter:  46  11:09:16  -5.6   -6.3     -23.15262    0      1      
iter:  47  11:09:23  -5.8   -6.0     -23.15262    0      1      
iter:  48  11:09:30  -6.7   -6.2     -23.15262    0      1      
iter:  49  11:09:37  -7.3   -6.1     -23.15262    0      1      
iter:  50  11:09:43  -6.2   -6.5     -23.15262    0      1      
iter:  51  11:09:50  -6.3   -6.1     -23.15262    0      1      
iter:  52  11:09:57  -7.7   -6.6     -23.15262    0      1      
iter:  53  11:10:04  -8.3   -6.5     -23.15262    0      1      
iter:  54  11:10:11  -7.6   -7.1     -23.15262    0      1      
iter:  55  11:10:18  -7.6   -6.9     -23.15262    0      1      
iter:  56  11:10:25  -8.0   -7.1     -23.15262    0      1      
iter:  57  11:10:31  -9.1   -7.4     -23.15262    0      1      
------------------------------------
Converged After 57 Iterations.

Energy Contributions Relative to Reference Atoms:(reference = -2067.75649)
-------------------------
Kinetic:        +17.11482
Potential:      -19.66698
External:        +0.00000
XC:             -20.78220
Entropy (-ST):   -0.00000
Local:           +0.18175
-------------------------
Free Energy:    -23.15262
Zero Kelvin:    -23.15262

Fermi Level: -4.76917
 Band   Eigenvalues  Occupancy
   0    -25.35845     2.00000
   1    -12.40390     2.00000
   2    -10.36812     2.00000
   3     -7.61576     2.00000
   4     -1.92259     0.00000
   5     -1.01463     0.00000
   6     -0.81180     0.00000
   7     -0.70258     0.00000
   8     -0.44872     0.00000
   9     -0.25435     0.00000
  10     -0.16319     0.00000
  11     -0.02488     0.00000
  12      0.35169     0.00000
  13      0.49992     0.00000
  14      0.90111     0.00000
  15      0.97103     0.00000
  16      1.00760     0.00000
  17      1.19315     0.00000
  18      1.26900     0.00000
  19      1.67451     0.00000
  20      1.75458     0.00000
  21      1.90320     0.00000
  22      2.09716     0.00000
  23      2.14676     0.00000


Total Charge:  -0.000000 electrons
Dipole Moment: [-0.0915394   0.28198942  0.29649498]

Forces in eV/Ang:
  0 O    -0.64016    2.02974    2.15845
  1 H     0.31687   -0.99838   -1.10372
  2 H     0.33759   -1.04034   -1.05033

Positions:
  0 O     5.2528    5.1881    5.2000
  1 H     5.3415    4.9075    5.9077
  2 H     5.0313    5.8642    4.9027

        .------------------------.  
       /|                        |  
      / |                        |  
     /  |                        |  
    /   |                        |  
   /    |                        |  
  /     |                        |  
 *      |                        |  
 |      |                        |  
 |      |                        |  
 |      |        H               |  
 |      |        O               |  
 |      |                        |  
 |      |                        |  
 |      .------------------------.  
 |     /                        /   
 |    /                        /    
 |   /                        /     
 |  /                        /      
 | /                        /       
 |/                        /        
 *------------------------*         

Unit Cell:
           Periodic     X           Y           Z      Points  Spacing
  --------------------------------------------------------------------
  1. axis:    no    10.312107    0.000000    0.000000    52     0.1983
  2. axis:    no     0.000000   10.960567    0.000000    56     0.1957
  3. axis:    no     0.000000    0.000000   11.010000    56     0.1966

O-setup:
  name   : Oxygen
  id     : 67c3882fbc6f3c92bc2234e8514132d8
  Z      : 8
  valence: 6
  core   : 2
  charge : 0.0
  file   : /fs/local/linux26_x86_64/appl/nano/gpaw/setups/0.8/O.revPBE.gz
  cutoffs: 0.74(comp), 1.30(filt), 0.83(core), lmax=2
  valence states:
            energy   radius
    2s(2)  -23.998   0.741
    2p(4)   -8.969   0.741
    *s       3.214   0.741
    *p      18.243   0.741
    *d       0.000   0.741

Using partial waves for O as LCAO basis

H-setup:
  name   : Hydrogen
  id     : 3c6a698a8690aeeacbc6041f547121c6
  Z      : 1
  valence: 1
  core   : 0
  charge : 0.0
  file   : /fs/local/linux26_x86_64/appl/nano/gpaw/setups/0.8/H.revPBE.gz
  cutoffs: 0.48(comp), 0.85(filt), 0.53(core), lmax=2
  valence states:
            energy   radius
    1s(1)   -6.547   0.476
    *s      20.664   0.476
    *p       0.000   0.476

Using partial waves for H as LCAO basis

Using the vdW-DF2 Exchange-Correlation Functional.
Spin-Paired Calculation
Total Charge:      0.000000
Fermi Temperature: 0.000000
Mode: Finite-difference
Eigensolver:       rmm-diis
                   (3 nearest neighbors central finite-difference stencil)
Poisson Solver:    Jacobi
                   (3 nearest neighbors central finite-difference stencil)

Interpolation:     6th Order
Reference Energy:  -2067.756486

Gamma Point Calculation
Total number of cores used: 16
Domain Decomposition: 2 x 2 x 4
MatrixOperator buffer_size: default value or 
                            see value of nblock in input file
Diagonalizer layout: Serial LAPACK
Orthonormalizer layout: Serial LAPACK

Symmetries present: 1
1 k-point in the Irreducible Part of the Brillouin Zone (total: 1)
Linear Mixing Parameter:           0.25
Pulay Mixing with 3 Old Densities
No Damping of Long Wave Oscillations

Convergence Criteria:
Total Energy Change:           0.0005 eV / electron
Integral of Absolute Density Change:    0.0001 electrons
Integral of Absolute Eigenstate Change: 1e-09
Number of Bands in Calculation:         24
Bands to Converge:                      Occupied States Only
Number of Valence Electrons:            8
                     log10-error:    Total        Iterations:
           Time      WFS    Density  Energy       Fermi  Poisson
iter:   1  11:10:39  +1.3             21.01295    0      19     
iter:   2  11:10:46  +0.6   -0.2     -23.15722    0      15     
iter:   3  11:10:54  +0.0   -0.4     -23.91824    0      17     
iter:   4  11:11:01  +0.0   -0.6     -17.54595    0      19     
iter:   5  11:11:09  -0.8   -0.9     -19.34938    0      15     
iter:   6  11:11:16  -1.6   -1.2     -19.51167    0      10     
iter:   7  11:11:23  -2.5   -1.6     -19.59650    0      9      
iter:   8  11:11:30  -3.0   -1.8     -19.59339    0      8      
iter:   9  11:11:37  -3.4   -1.9     -19.58942    0      8      
iter:  10  11:11:44  -3.8   -2.3     -19.59074    0      6      
iter:  11  11:11:51  -4.3   -2.5     -19.59081    0      5      
iter:  12  11:11:58  -4.5   -2.8     -19.59080    0      5      
iter:  13  11:12:06  -4.3   -3.1     -19.59078    0      5      
iter:  14  11:12:12  -4.7   -3.4     -19.59087    0      4      
iter:  15  11:12:19  -4.4   -3.6     -19.59091    0      3      
iter:  16  11:12:26  -5.0   -3.9     -19.59088    0      2      
iter:  17  11:12:33  -4.6   -4.1     -19.59085    0      3      
iter:  18  11:12:40  -5.0   -4.5     -19.59095    0      1      
iter:  19  11:12:47  -4.7   -4.7     -19.59088    0      2      
iter:  20  11:12:54  -5.3   -4.9     -19.59084    0      1      
iter:  21  11:13:01  -5.0   -5.0     -19.59078    0      1      
iter:  22  11:13:07  -5.1   -5.2     -19.59080    0      1      
iter:  23  11:13:14  -5.7   -5.3     -19.59085    0      1      
iter:  24  11:13:21  -5.9   -5.5     -19.59086    0      1      
iter:  25  11:13:28  -5.7   -5.8     -19.59085    0      1      
iter:  26  11:13:35  -5.4   -6.0     -19.59084    0      1      
iter:  27  11:13:42  -5.8   -5.9     -19.59085    0      1      
iter:  28  11:13:49  -6.3   -6.3     -19.59085    0      1      
iter:  29  11:13:55  -7.1   -6.0     -19.59085    0      1      
iter:  30  11:14:02  -6.9   -6.2     -19.59085    0      1      
iter:  31  11:14:09  -7.7   -6.4     -19.59085    0      1      
iter:  32  11:14:16  -7.6   -6.5     -19.59085    0      1      
iter:  33  11:14:23  -7.9   -6.4     -19.59085    0      1      
iter:  34  11:14:30  -7.8   -6.2     -19.59085    0      1      
iter:  35  11:14:36  -8.5   -6.6     -19.59085    0      1      
iter:  36  11:14:43  -7.4   -6.8     -19.59085    0      1      
iter:  37  11:14:50  -8.4   -7.0     -19.59085    0      1      
iter:  38  11:14:57  -9.4   -7.0     -19.59085    0      1      
------------------------------------
Converged After 38 Iterations.

Energy Contributions Relative to Reference Atoms:(reference = -2067.75649)
-------------------------
Kinetic:        +48.09223
Potential:      -40.05614
External:        +0.00000
XC:             -27.79997
Entropy (-ST):   -0.00000
Local:           +0.17304
-------------------------
Free Energy:    -19.59085
Zero Kelvin:    -19.59085

Fermi Level: -4.79785
 Band   Eigenvalues  Occupancy
   0    -27.58634     2.00000
   1    -17.24666     2.00000
   2     -8.79891     2.00000
   3     -8.05546     2.00000
   4     -1.54024     0.00000
   5     -1.00191     0.00000
   6     -0.76527     0.00000
   7     -0.70327     0.00000
   8     -0.35402     0.00000
   9     -0.21994     0.00000
  10     -0.11660     0.00000
  11      0.21079     0.00000
  12      0.38301     0.00000
  13      0.46450     0.00000
  14      0.90501     0.00000
  15      0.91488     0.00000
  16      1.09458     0.00000
  17      1.22265     0.00000
  18      1.54943     0.00000
  19      1.70538     0.00000
  20      1.85753     0.00000
  21      1.97808     0.00000
  22      2.16826     0.00000
  23      2.22960     0.00000


Total Charge:  0.000000 electrons
Dipole Moment: [-0.05650036  0.16831821  0.17523095]

Forces in eV/Ang:
  0 O     3.98233  -11.89401  -13.79370
  1 H     2.17413   -6.96709   20.76068
  2 H    -6.17493   18.88383   -7.00776

Positions:
  0 O     5.3048    5.0232    5.0247
  1 H     5.3157    4.9886    5.9974
  2 H     5.0039    5.9487    4.9880

        .------------------------.  
       /|                        |  
      / |                        |  
     /  |                        |  
    /   |                        |  
   /    |                        |  
  /     |                        |  
 *      |                        |  
 |      |                        |  
 |      |                        |  
 |      |        H               |  
 |      |        O               |  
 |      |                        |  
 |      |                        |  
 |      .------------------------.  
 |     /                        /   
 |    /                        /    
 |   /                        /     
 |  /                        /      
 | /                        /       
 |/                        /        
 *------------------------*         

Unit Cell:
           Periodic     X           Y           Z      Points  Spacing
  --------------------------------------------------------------------
  1. axis:    no    10.312107    0.000000    0.000000    52     0.1983
  2. axis:    no     0.000000   10.960567    0.000000    56     0.1957
  3. axis:    no     0.000000    0.000000   11.010000    56     0.1966

O-setup:
  name   : Oxygen
  id     : 67c3882fbc6f3c92bc2234e8514132d8
  Z      : 8
  valence: 6
  core   : 2
  charge : 0.0
  file   : /fs/local/linux26_x86_64/appl/nano/gpaw/setups/0.8/O.revPBE.gz
  cutoffs: 0.74(comp), 1.30(filt), 0.83(core), lmax=2
  valence states:
            energy   radius
    2s(2)  -23.998   0.741
    2p(4)   -8.969   0.741
    *s       3.214   0.741
    *p      18.243   0.741
    *d       0.000   0.741

Using partial waves for O as LCAO basis

H-setup:
  name   : Hydrogen
  id     : 3c6a698a8690aeeacbc6041f547121c6
  Z      : 1
  valence: 1
  core   : 0
  charge : 0.0
  file   : /fs/local/linux26_x86_64/appl/nano/gpaw/setups/0.8/H.revPBE.gz
  cutoffs: 0.48(comp), 0.85(filt), 0.53(core), lmax=2
  valence states:
            energy   radius
    1s(1)   -6.547   0.476
    *s      20.664   0.476
    *p       0.000   0.476

Using partial waves for H as LCAO basis

Using the vdW-DF2 Exchange-Correlation Functional.
Spin-Paired Calculation
Total Charge:      0.000000
Fermi Temperature: 0.000000
Mode: Finite-difference
Eigensolver:       rmm-diis
                   (3 nearest neighbors central finite-difference stencil)
Poisson Solver:    Jacobi
                   (3 nearest neighbors central finite-difference stencil)

Interpolation:     6th Order
Reference Energy:  -2067.756486

Gamma Point Calculation
Total number of cores used: 16
Domain Decomposition: 2 x 2 x 4
MatrixOperator buffer_size: default value or 
                            see value of nblock in input file
Diagonalizer layout: Serial LAPACK
Orthonormalizer layout: Serial LAPACK

Symmetries present: 1
1 k-point in the Irreducible Part of the Brillouin Zone (total: 1)
Linear Mixing Parameter:           0.25
Pulay Mixing with 3 Old Densities
No Damping of Long Wave Oscillations

Convergence Criteria:
Total Energy Change:           0.0005 eV / electron
Integral of Absolute Density Change:    0.0001 electrons
Integral of Absolute Eigenstate Change: 1e-09
Number of Bands in Calculation:         24
Bands to Converge:                      Occupied States Only
Number of Valence Electrons:            8
                     log10-error:    Total        Iterations:
           Time      WFS    Density  Energy       Fermi  Poisson
iter:   1  11:15:05  +0.7             8.51599     0      18     
iter:   2  11:15:12  +0.6   -0.0     -26.24949    0      26     
iter:   3  11:15:20  -0.2   -0.3     -33.60776    0      20     
iter:   4  11:15:28  +0.3   -0.4     -25.33791    0      25     
iter:   5  11:15:35  -0.6   -0.3     -26.61677    0      18     
iter:   6  11:15:43  -0.3   -0.6     -22.04382    0      18     
iter:   7  11:15:50  -0.9   -0.9     -23.19181    0      13     
iter:   8  11:15:58  -1.2   -1.0     -23.24114    0      19     
iter:   9  11:16:05  -2.2   -1.2     -23.29281    0      14     
iter:  10  11:16:12  -1.9   -1.4     -23.23724    0      16     
iter:  11  11:16:20  -2.8   -1.9     -23.25061    0      7      
iter:  12  11:16:27  -3.3   -2.0     -23.25036    0      11     
iter:  13  11:16:34  -3.3   -2.1     -23.25150    0      9      
iter:  14  11:16:41  -4.3   -2.5     -23.25191    0      5      
iter:  15  11:16:48  -4.3   -2.5     -23.25232    0      7      
iter:  16  11:16:55  -4.4   -2.8     -23.25213    0      5      
iter:  17  11:17:02  -5.0   -3.4     -23.25203    0      3      
iter:  18  11:17:09  -4.2   -3.6     -23.25200    0      4      
iter:  19  11:17:16  -4.1   -3.8     -23.25206    0      2      
iter:  20  11:17:23  -4.0   -3.9     -23.25202    0      3      
iter:  21  11:17:30  -4.7   -4.5     -23.25197    0      1      
iter:  22  11:17:36  -4.5   -4.4     -23.25196    0      1      
iter:  23  11:17:43  -4.3   -4.5     -23.25202    0      1      
iter:  24  11:17:50  -4.5   -4.7     -23.25217    0      1      
iter:  25  11:17:57  -4.8   -4.9     -23.25218    0      1      
iter:  26  11:18:04  -4.9   -4.8     -23.25219    0      1      
iter:  27  11:18:11  -4.8   -5.0     -23.25215    0      1      
iter:  28  11:18:18  -5.2   -5.0     -23.25216    0      1      
iter:  29  11:18:24  -5.1   -5.4     -23.25216    0      1      
iter:  30  11:18:31  -5.4   -5.3     -23.25218    0      1      
iter:  31  11:18:38  -5.8   -5.4     -23.25218    0      1      
iter:  32  11:18:45  -6.0   -5.5     -23.25218    0      1      
iter:  33  11:18:52  -6.6   -5.5     -23.25218    0      1      
iter:  34  11:18:59  -6.5   -5.7     -23.25218    0      1      
iter:  35  11:19:05  -6.7   -5.9     -23.25218    0      1      
iter:  36  11:19:12  -7.3   -6.1     -23.25218    0      1      
iter:  37  11:19:19  -6.9   -6.1     -23.25218    0      1      
iter:  38  11:19:26  -7.0   -6.4     -23.25218    0      1      
iter:  39  11:19:33  -7.6   -6.3     -23.25218    0      1      
iter:  40  11:19:40  -7.3   -6.6     -23.25218    0      1      
iter:  41  11:19:47  -8.2   -6.8     -23.25218    0      1      
iter:  42  11:19:53  -9.5   -6.8     -23.25218    0      1      
------------------------------------
Converged After 42 Iterations.

Energy Contributions Relative to Reference Atoms:(reference = -2067.75649)
-------------------------
Kinetic:        +20.09000
Potential:      -21.87258
External:        +0.00000
XC:             -21.64889
Entropy (-ST):   -0.00000
Local:           +0.17929
-------------------------
Free Energy:    -23.25218
Zero Kelvin:    -23.25218

Fermi Level: -4.74669
 Band   Eigenvalues  Occupancy
   0    -25.68121     2.00000
   1    -12.92429     2.00000
   2    -10.19626     2.00000
   3     -7.65995     2.00000
   4     -1.83343     0.00000
   5     -1.01903     0.00000
   6     -0.76493     0.00000
   7     -0.67953     0.00000
   8     -0.38365     0.00000
   9     -0.24398     0.00000
  10     -0.15363     0.00000
  11     -0.01911     0.00000
  12      0.36630     0.00000
  13      0.51006     0.00000
  14      0.93984     0.00000
  15      0.99129     0.00000
  16      1.13909     0.00000
  17      1.19724     0.00000
  18      1.29709     0.00000
  19      1.71602     0.00000
  20      1.76846     0.00000
  21      1.95900     0.00000
  22      2.07028     0.00000
  23      2.13513     0.00000


Total Charge:  0.000000 electrons
Dipole Moment: [-0.08868227  0.27265409  0.2865582 ]

Forces in eV/Ang:
  0 O    -0.15724    0.51914    0.52671
  1 H     0.25316   -0.81141    0.33151
  2 H    -0.09866    0.30396   -0.84783

Positions:
  0 O     5.2908    5.0702    5.0713
  1 H     5.3458    4.8920    6.0529
  2 H     4.9872    5.9999    4.8872

        .------------------------.  
       /|                        |  
      / |                        |  
     /  |                        |  
    /   |                        |  
   /    |                        |  
  /     |                        |  
 *      |                        |  
 |      |                        |  
 |      |                        |  
 |      |        H               |  
 |      |        O               |  
 |      |                        |  
 |      |                        |  
 |      .------------------------.  
 |     /                        /   
 |    /                        /    
 |   /                        /     
 |  /                        /      
 | /                        /       
 |/                        /        
 *------------------------*         

Unit Cell:
           Periodic     X           Y           Z      Points  Spacing
  --------------------------------------------------------------------
  1. axis:    no    10.312107    0.000000    0.000000    52     0.1983
  2. axis:    no     0.000000   10.960567    0.000000    56     0.1957
  3. axis:    no     0.000000    0.000000   11.010000    56     0.1966

O-setup:
  name   : Oxygen
  id     : 67c3882fbc6f3c92bc2234e8514132d8
  Z      : 8
  valence: 6
  core   : 2
  charge : 0.0
  file   : /fs/local/linux26_x86_64/appl/nano/gpaw/setups/0.8/O.revPBE.gz
  cutoffs: 0.74(comp), 1.30(filt), 0.83(core), lmax=2
  valence states:
            energy   radius
    2s(2)  -23.998   0.741
    2p(4)   -8.969   0.741
    *s       3.214   0.741
    *p      18.243   0.741
    *d       0.000   0.741

Using partial waves for O as LCAO basis

H-setup:
  name   : Hydrogen
  id     : 3c6a698a8690aeeacbc6041f547121c6
  Z      : 1
  valence: 1
  core   : 0
  charge : 0.0
  file   : /fs/local/linux26_x86_64/appl/nano/gpaw/setups/0.8/H.revPBE.gz
  cutoffs: 0.48(comp), 0.85(filt), 0.53(core), lmax=2
  valence states:
            energy   radius
    1s(1)   -6.547   0.476
    *s      20.664   0.476
    *p       0.000   0.476

Using partial waves for H as LCAO basis

Using the vdW-DF2 Exchange-Correlation Functional.
Spin-Paired Calculation
Total Charge:      0.000000
Fermi Temperature: 0.000000
Mode: Finite-difference
Eigensolver:       rmm-diis
                   (3 nearest neighbors central finite-difference stencil)
Poisson Solver:    Jacobi
                   (3 nearest neighbors central finite-difference stencil)

Interpolation:     6th Order
Reference Energy:  -2067.756486

Gamma Point Calculation
Total number of cores used: 16
Domain Decomposition: 2 x 2 x 4
MatrixOperator buffer_size: default value or 
                            see value of nblock in input file
Diagonalizer layout: Serial LAPACK
Orthonormalizer layout: Serial LAPACK

Symmetries present: 1
1 k-point in the Irreducible Part of the Brillouin Zone (total: 1)
Linear Mixing Parameter:           0.25
Pulay Mixing with 3 Old Densities
No Damping of Long Wave Oscillations

Convergence Criteria:
Total Energy Change:           0.0005 eV / electron
Integral of Absolute Density Change:    0.0001 electrons
Integral of Absolute Eigenstate Change: 1e-09
Number of Bands in Calculation:         24
Bands to Converge:                      Occupied States Only
Number of Valence Electrons:            8
                     log10-error:    Total        Iterations:
           Time      WFS    Density  Energy       Fermi  Poisson
iter:   1  11:20:01  +0.1            -20.62067    0      15     
iter:   2  11:20:08  -1.1   -0.9     -23.46107    0      11     
iter:   3  11:20:15  -1.7   -1.1     -23.20867    0      12     
iter:   4  11:20:23  -2.1   -1.5     -23.21870    0      10     
iter:   5  11:20:30  -2.8   -2.0     -23.25717    0      7      
iter:   6  11:20:37  -3.3   -2.1     -23.25775    0      8      
iter:   7  11:20:44  -3.3   -2.4     -23.25807    0      7      
iter:   8  11:20:51  -4.0   -2.3     -23.25760    0      6      
iter:   9  11:20:58  -4.5   -3.1     -23.25777    0      4      
iter:  10  11:21:05  -4.6   -3.4     -23.25780    0      4      
iter:  11  11:21:12  -4.8   -3.5     -23.25785    0      3      
iter:  12  11:21:19  -4.9   -3.7     -23.25774    0      3      
iter:  13  11:21:26  -5.3   -4.0     -23.25778    0      2      
iter:  14  11:21:32  -5.0   -4.2     -23.25778    0      2      
iter:  15  11:21:39  -5.0   -4.3     -23.25775    0      2      
iter:  16  11:21:46  -4.6   -4.4     -23.25773    0      2      
iter:  17  11:21:53  -4.6   -4.6     -23.25791    0      1      
iter:  18  11:22:00  -5.0   -4.8     -23.25783    0      1      
iter:  19  11:22:07  -5.3   -5.1     -23.25781    0      1      
iter:  20  11:22:14  -6.1   -5.3     -23.25778    0      1      
iter:  21  11:22:21  -7.1   -5.3     -23.25778    0      1      
iter:  22  11:22:27  -6.4   -5.5     -23.25776    0      1      
iter:  23  11:22:34  -6.6   -5.6     -23.25779    0      1      
iter:  24  11:22:41  -7.0   -5.8     -23.25780    0      1      
iter:  25  11:22:48  -7.7   -5.9     -23.25779    0      1      
iter:  26  11:22:55  -8.1   -6.0     -23.25778    0      1      
iter:  27  11:23:02  -7.6   -6.2     -23.25778    0      1      
iter:  28  11:23:09  -7.9   -6.4     -23.25779    0      1      
iter:  29  11:23:15  -7.8   -6.5     -23.25779    0      1      
iter:  30  11:23:22  -7.7   -6.6     -23.25778    0      1      
iter:  31  11:23:29  -7.9   -7.0     -23.25779    0      1      
iter:  32  11:23:36  -8.8   -7.1     -23.25779    0      1      
iter:  33  11:23:43  -9.8   -7.2     -23.25779    0      1      
------------------------------------
Converged After 33 Iterations.

Energy Contributions Relative to Reference Atoms:(reference = -2067.75649)
-------------------------
Kinetic:        +17.11705
Potential:      -19.54687
External:        +0.00000
XC:             -21.01435
Entropy (-ST):   -0.00000
Local:           +0.18639
-------------------------
Free Energy:    -23.25779
Zero Kelvin:    -23.25779

Fermi Level: -4.63964
 Band   Eigenvalues  Occupancy
   0    -25.10904     2.00000
   1    -13.52721     2.00000
   2     -9.30292     2.00000
   3     -7.52521     2.00000
   4     -1.75406     0.00000
   5     -0.84641     0.00000
   6     -0.64067     0.00000
   7     -0.47794     0.00000
   8     -0.18317     0.00000
   9     -0.04341     0.00000
  10      0.01169     0.00000
  11      0.15781     0.00000
  12      0.61615     0.00000
  13      0.71039     0.00000
  14      1.10143     0.00000
  15      1.14127     0.00000
  16      1.20041     0.00000
  17      1.39343     0.00000
  18      1.43862     0.00000
  19      1.79968     0.00000
  20      1.88583     0.00000
  21      2.14163     0.00000
  22      2.25079     0.00000
  23      2.31786     0.00000


Total Charge:  0.000000 electrons
Dipole Moment: [-0.0787408   0.23822745  0.25222578]

Forces in eV/Ang:
  0 O    -0.03831    0.14762    0.38217
  1 H    -0.24277    0.74626   -1.12653
  2 H     0.29615   -0.90562    0.74552

Positions:
  0 O     5.2977    5.0471    5.0484
  1 H     5.3310    4.9394    6.0257
  2 H     4.9954    5.9748    4.9366

        .------------------------.  
       /|                        |  
      / |                        |  
     /  |                        |  
    /   |                        |  
   /    |                        |  
  /     |                        |  
 *      |                        |  
 |      |                        |  
 |      |                        |  
 |      |        H               |  
 |      |        O               |  
 |      |                        |  
 |      |                        |  
 |      .------------------------.  
 |     /                        /   
 |    /                        /    
 |   /                        /     
 |  /                        /      
 | /                        /       
 |/                        /        
 *------------------------*         

Unit Cell:
           Periodic     X           Y           Z      Points  Spacing
  --------------------------------------------------------------------
  1. axis:    no    10.312107    0.000000    0.000000    52     0.1983
  2. axis:    no     0.000000   10.960567    0.000000    56     0.1957
  3. axis:    no     0.000000    0.000000   11.010000    56     0.1966

O-setup:
  name   : Oxygen
  id     : 67c3882fbc6f3c92bc2234e8514132d8
  Z      : 8
  valence: 6
  core   : 2
  charge : 0.0
  file   : /fs/local/linux26_x86_64/appl/nano/gpaw/setups/0.8/O.revPBE.gz
  cutoffs: 0.74(comp), 1.30(filt), 0.83(core), lmax=2
  valence states:
            energy   radius
    2s(2)  -23.998   0.741
    2p(4)   -8.969   0.741
    *s       3.214   0.741
    *p      18.243   0.741
    *d       0.000   0.741

Using partial waves for O as LCAO basis

H-setup:
  name   : Hydrogen
  id     : 3c6a698a8690aeeacbc6041f547121c6
  Z      : 1
  valence: 1
  core   : 0
  charge : 0.0
  file   : /fs/local/linux26_x86_64/appl/nano/gpaw/setups/0.8/H.revPBE.gz
  cutoffs: 0.48(comp), 0.85(filt), 0.53(core), lmax=2
  valence states:
            energy   radius
    1s(1)   -6.547   0.476
    *s      20.664   0.476
    *p       0.000   0.476

Using partial waves for H as LCAO basis

Using the vdW-DF2 Exchange-Correlation Functional.
Spin-Paired Calculation
Total Charge:      0.000000
Fermi Temperature: 0.000000
Mode: Finite-difference
Eigensolver:       rmm-diis
                   (3 nearest neighbors central finite-difference stencil)
Poisson Solver:    Jacobi
                   (3 nearest neighbors central finite-difference stencil)

Interpolation:     6th Order
Reference Energy:  -2067.756486

Gamma Point Calculation
Total number of cores used: 16
Domain Decomposition: 2 x 2 x 4
MatrixOperator buffer_size: default value or 
                            see value of nblock in input file
Diagonalizer layout: Serial LAPACK
Orthonormalizer layout: Serial LAPACK

Symmetries present: 1
1 k-point in the Irreducible Part of the Brillouin Zone (total: 1)
Linear Mixing Parameter:           0.25
Pulay Mixing with 3 Old Densities
No Damping of Long Wave Oscillations

Convergence Criteria:
Total Energy Change:           0.0005 eV / electron
Integral of Absolute Density Change:    0.0001 electrons
Integral of Absolute Eigenstate Change: 1e-09
Number of Bands in Calculation:         24
Bands to Converge:                      Occupied States Only
Number of Valence Electrons:            8
                     log10-error:    Total        Iterations:
           Time      WFS    Density  Energy       Fermi  Poisson
iter:   1  11:23:50  -0.5            -22.62297    0      14     
iter:   2  11:23:57  -1.7   -1.3     -23.38798    0      9      
iter:   3  11:24:05  -1.3   -1.4     -23.30910    0      12     
iter:   4  11:24:12  -1.8   -1.4     -23.27960    0      11     
iter:   5  11:24:19  -2.8   -1.9     -23.31938    0      7      
iter:   6  11:24:26  -3.2   -2.0     -23.31686    0      7      
iter:   7  11:24:33  -4.1   -2.5     -23.31789    0      4      
iter:   8  11:24:40  -4.4   -2.7     -23.31784    0      5      
iter:   9  11:24:47  -5.0   -2.9     -23.31795    0      4      
iter:  10  11:24:54  -4.7   -3.1     -23.31801    0      4      
iter:  11  11:25:01  -5.0   -3.5     -23.31804    0      3      
iter:  12  11:25:08  -4.9   -3.8     -23.31805    0      3      
iter:  13  11:25:15  -4.7   -4.1     -23.31794    0      3      
iter:  14  11:25:22  -4.8   -4.4     -23.31796    0      2      
iter:  15  11:25:29  -5.1   -4.5     -23.31803    0      2      
iter:  16  11:25:35  -5.6   -4.9     -23.31799    0      1      
iter:  17  11:25:42  -5.5   -5.1     -23.31790    0      1      
iter:  18  11:25:49  -5.3   -5.3     -23.31794    0      1      
iter:  19  11:25:56  -5.2   -5.3     -23.31803    0      1      
iter:  20  11:26:03  -5.2   -5.4     -23.31801    0      1      
iter:  21  11:26:10  -5.7   -5.6     -23.31798    0      1      
iter:  22  11:26:17  -7.0   -5.6     -23.31799    0      1      
iter:  23  11:26:23  -6.8   -5.7     -23.31799    0      1      
iter:  24  11:26:30  -6.4   -5.9     -23.31799    0      1      
iter:  25  11:26:37  -6.5   -6.0     -23.31800    0      1      
iter:  26  11:26:44  -7.1   -6.2     -23.31800    0      1      
iter:  27  11:26:51  -7.5   -6.3     -23.31800    0      1      
iter:  28  11:26:58  -7.5   -6.6     -23.31800    0      1      
iter:  29  11:27:05  -7.7   -6.5     -23.31800    0      1      
iter:  30  11:27:11  -7.8   -6.3     -23.31799    0      1      
iter:  31  11:27:18  -6.8   -6.5     -23.31799    0      1      
iter:  32  11:27:25  -7.9   -6.6     -23.31800    0      1      
iter:  33  11:27:32  -8.7   -6.8     -23.31800    0      1      
iter:  34  11:27:39  -7.5   -7.2     -23.31800    0      1      
iter:  35  11:27:46  -7.9   -7.0     -23.31800    0      1      
iter:  36  11:27:53  -9.0   -7.3     -23.31800    0      1      
------------------------------------
Converged After 36 Iterations.

Energy Contributions Relative to Reference Atoms:(reference = -2067.75649)
-------------------------
Kinetic:        +18.80013
Potential:      -20.90468
External:        +0.00000
XC:             -21.39544
Entropy (-ST):   -0.00000
Local:           +0.18199
-------------------------
Free Energy:    -23.31800
Zero Kelvin:    -23.31800

Fermi Level: -4.69058
 Band   Eigenvalues  Occupancy
   0    -25.40100     2.00000
   1    -13.29082     2.00000
   2     -9.73291     2.00000
   3     -7.59675     2.00000
   4     -1.78440     0.00000
   5     -0.94897     0.00000
   6     -0.73310     0.00000
   7     -0.61354     0.00000
   8     -0.30235     0.00000
   9     -0.16834     0.00000
  10     -0.09115     0.00000
  11      0.04031     0.00000
  12      0.46343     0.00000
  13      0.57957     0.00000
  14      0.98935     0.00000
  15      1.05112     0.00000
  16      1.13182     0.00000
  17      1.26110     0.00000
  18      1.34636     0.00000
  19      1.74055     0.00000
  20      1.80662     0.00000
  21      2.00167     0.00000
  22      2.10657     0.00000
  23      2.18873     0.00000


Total Charge:  -0.000000 electrons
Dipole Moment: [-0.0838359   0.25579636  0.26970184]

Forces in eV/Ang:
  0 O    -0.07836    0.29838    0.42814
  1 H    -0.00588   -0.00617   -0.39949
  2 H     0.10118   -0.28657   -0.01724

Positions:
  0 O     5.2992    5.0479    5.0596
  1 H     5.3306    4.9381    6.0181
  2 H     4.9957    5.9764    4.9344

        .------------------------.  
       /|                        |  
      / |                        |  
     /  |                        |  
    /   |                        |  
   /    |                        |  
  /     |                        |  
 *      |                        |  
 |      |                        |  
 |      |                        |  
 |      |        H               |  
 |      |        O               |  
 |      |                        |  
 |      |                        |  
 |      .------------------------.  
 |     /                        /   
 |    /                        /    
 |   /                        /     
 |  /                        /      
 | /                        /       
 |/                        /        
 *------------------------*         

Unit Cell:
           Periodic     X           Y           Z      Points  Spacing
  --------------------------------------------------------------------
  1. axis:    no    10.312107    0.000000    0.000000    52     0.1983
  2. axis:    no     0.000000   10.960567    0.000000    56     0.1957
  3. axis:    no     0.000000    0.000000   11.010000    56     0.1966

O-setup:
  name   : Oxygen
  id     : 67c3882fbc6f3c92bc2234e8514132d8
  Z      : 8
  valence: 6
  core   : 2
  charge : 0.0
  file   : /fs/local/linux26_x86_64/appl/nano/gpaw/setups/0.8/O.revPBE.gz
  cutoffs: 0.74(comp), 1.30(filt), 0.83(core), lmax=2
  valence states:
            energy   radius
    2s(2)  -23.998   0.741
    2p(4)   -8.969   0.741
    *s       3.214   0.741
    *p      18.243   0.741
    *d       0.000   0.741

Using partial waves for O as LCAO basis

H-setup:
  name   : Hydrogen
  id     : 3c6a698a8690aeeacbc6041f547121c6
  Z      : 1
  valence: 1
  core   : 0
  charge : 0.0
  file   : /fs/local/linux26_x86_64/appl/nano/gpaw/setups/0.8/H.revPBE.gz
  cutoffs: 0.48(comp), 0.85(filt), 0.53(core), lmax=2
  valence states:
            energy   radius
    1s(1)   -6.547   0.476
    *s      20.664   0.476
    *p       0.000   0.476

Using partial waves for H as LCAO basis

Using the vdW-DF2 Exchange-Correlation Functional.
Spin-Paired Calculation
Total Charge:      0.000000
Fermi Temperature: 0.000000
Mode: Finite-difference
Eigensolver:       rmm-diis
                   (3 nearest neighbors central finite-difference stencil)
Poisson Solver:    Jacobi
                   (3 nearest neighbors central finite-difference stencil)

Interpolation:     6th Order
Reference Energy:  -2067.756486

Gamma Point Calculation
Total number of cores used: 16
Domain Decomposition: 2 x 2 x 4
MatrixOperator buffer_size: default value or 
                            see value of nblock in input file
Diagonalizer layout: Serial LAPACK
Orthonormalizer layout: Serial LAPACK

Symmetries present: 1
1 k-point in the Irreducible Part of the Brillouin Zone (total: 1)
Linear Mixing Parameter:           0.25
Pulay Mixing with 3 Old Densities
No Damping of Long Wave Oscillations

Convergence Criteria:
Total Energy Change:           0.0005 eV / electron
Integral of Absolute Density Change:    0.0001 electrons
Integral of Absolute Eigenstate Change: 1e-09
Number of Bands in Calculation:         24
Bands to Converge:                      Occupied States Only
Number of Valence Electrons:            8
                     log10-error:    Total        Iterations:
           Time      WFS    Density  Energy       Fermi  Poisson
iter:   1  11:28:00  -1.4            -23.21817    0      11     
iter:   2  11:28:07  -2.5   -1.7     -23.33387    0      7      
iter:   3  11:28:14  -2.3   -1.8     -23.30917    0      10     
iter:   4  11:28:21  -3.2   -1.9     -23.31583    0      8      
iter:   5  11:28:28  -4.7   -2.6     -23.31706    0      4      
iter:   6  11:28:35  -4.4   -2.6     -23.31679    0      6      
iter:   7  11:28:42  -4.6   -3.2     -23.31687    0      4      
iter:   8  11:28:49  -4.8   -3.6     -23.31689    0      3      
iter:   9  11:28:56  -4.7   -3.7     -23.31684    0      3      
iter:  10  11:29:03  -4.8   -4.0     -23.31684    0      2      
iter:  11  11:29:10  -4.3   -4.1     -23.31684    0      3      
iter:  12  11:29:17  -4.5   -4.4     -23.31689    0      1      
iter:  13  11:29:24  -5.2   -4.5     -23.31683    0      1      
iter:  14  11:29:30  -4.4   -4.9     -23.31678    0      1      
iter:  15  11:29:37  -4.5   -4.9     -23.31685    0      1      
iter:  16  11:29:44  -5.1   -5.1     -23.31684    0      1      
iter:  17  11:29:51  -5.1   -5.0     -23.31684    0      1      
iter:  18  11:29:58  -5.4   -5.4     -23.31684    0      1      
iter:  19  11:30:05  -5.8   -5.3     -23.31684    0      1      
iter:  20  11:30:12  -5.4   -5.4     -23.31685    0      1      
iter:  21  11:30:18  -6.0   -5.7     -23.31685    0      1      
iter:  22  11:30:25  -6.0   -5.8     -23.31685    0      1      
iter:  23  11:30:32  -6.0   -5.6     -23.31685    0      1      
iter:  24  11:30:39  -6.4   -6.1     -23.31685    0      1      
iter:  25  11:30:46  -6.0   -6.2     -23.31685    0      1      
iter:  26  11:30:53  -7.2   -6.0     -23.31685    0      1      
iter:  27  11:31:00  -7.9   -6.0     -23.31685    0      1      
iter:  28  11:31:06  -7.3   -6.1     -23.31685    0      1      
iter:  29  11:31:13  -8.1   -6.2     -23.31685    0      1      
iter:  30  11:31:20  -7.4   -6.3     -23.31685    0      1      
iter:  31  11:31:27  -6.6   -6.2     -23.31685    0      1      
iter:  32  11:31:34  -6.7   -6.9     -23.31685    0      1      
iter:  33  11:31:41  -8.0   -6.3     -23.31685    0      1      
iter:  34  11:31:48  -8.6   -6.3     -23.31685    0      1      
iter:  35  11:31:54  -7.1   -6.5     -23.31685    0      1      
iter:  36  11:32:01  -7.9   -6.9     -23.31685    0      1      
iter:  37  11:32:08  -9.0   -6.6     -23.31685    0      1      
------------------------------------
Converged After 37 Iterations.

Energy Contributions Relative to Reference Atoms:(reference = -2067.75649)
-------------------------
Kinetic:        +19.48919
Potential:      -21.39942
External:        +0.00000
XC:             -21.58800
Entropy (-ST):   -0.00000
Local:           +0.18138
-------------------------
Free Energy:    -23.31685
Zero Kelvin:    -23.31685

Fermi Level: -4.68835
 Band   Eigenvalues  Occupancy
   0    -25.47213     2.00000
   1    -13.40833     2.00000
   2     -9.69572     2.00000
   3     -7.60738     2.00000
   4     -1.76931     0.00000
   5     -0.95247     0.00000
   6     -0.73320     0.00000
   7     -0.61859     0.00000
   8     -0.29531     0.00000
   9     -0.16801     0.00000
  10     -0.10338     0.00000
  11      0.03151     0.00000
  12      0.46011     0.00000
  13      0.56988     0.00000
  14      0.98720     0.00000
  15      1.04551     0.00000
  16      1.15157     0.00000
  17      1.25226     0.00000
  18      1.34677     0.00000
  19      1.74132     0.00000
  20      1.80239     0.00000
  21      1.99516     0.00000
  22      2.10265     0.00000
  23      2.17914     0.00000


Total Charge:  -0.000000 electrons
Dipole Moment: [-0.08514226  0.25630923  0.26401945]

Forces in eV/Ang:
  0 O    -0.16055    0.50484   -0.53694
  1 H     0.00811   -0.05730    0.48890
  2 H     0.14796   -0.43218    0.05634

Positions:
  0 O     5.2983    5.0475    5.0533
  1 H     5.3308    4.9388    6.0224
  2 H     4.9955    5.9755    4.9356

        .------------------------.  
       /|                        |  
      / |                        |  
     /  |                        |  
    /   |                        |  
   /    |                        |  
  /     |                        |  
 *      |                        |  
 |      |                        |  
 |      |                        |  
 |      |        H               |  
 |      |        O               |  
 |      |                        |  
 |      |                        |  
 |      .------------------------.  
 |     /                        /   
 |    /                        /    
 |   /                        /     
 |  /                        /      
 | /                        /       
 |/                        /        
 *------------------------*         

Unit Cell:
           Periodic     X           Y           Z      Points  Spacing
  --------------------------------------------------------------------
  1. axis:    no    10.312107    0.000000    0.000000    52     0.1983
  2. axis:    no     0.000000   10.960567    0.000000    56     0.1957
  3. axis:    no     0.000000    0.000000   11.010000    56     0.1966

O-setup:
  name   : Oxygen
  id     : 67c3882fbc6f3c92bc2234e8514132d8
  Z      : 8
  valence: 6
  core   : 2
  charge : 0.0
  file   : /fs/local/linux26_x86_64/appl/nano/gpaw/setups/0.8/O.revPBE.gz
  cutoffs: 0.74(comp), 1.30(filt), 0.83(core), lmax=2
  valence states:
            energy   radius
    2s(2)  -23.998   0.741
    2p(4)   -8.969   0.741
    *s       3.214   0.741
    *p      18.243   0.741
    *d       0.000   0.741

Using partial waves for O as LCAO basis

H-setup:
  name   : Hydrogen
  id     : 3c6a698a8690aeeacbc6041f547121c6
  Z      : 1
  valence: 1
  core   : 0
  charge : 0.0
  file   : /fs/local/linux26_x86_64/appl/nano/gpaw/setups/0.8/H.revPBE.gz
  cutoffs: 0.48(comp), 0.85(filt), 0.53(core), lmax=2
  valence states:
            energy   radius
    1s(1)   -6.547   0.476
    *s      20.664   0.476
    *p       0.000   0.476

Using partial waves for H as LCAO basis

Using the vdW-DF2 Exchange-Correlation Functional.
Spin-Paired Calculation
Total Charge:      0.000000
Fermi Temperature: 0.000000
Mode: Finite-difference
Eigensolver:       rmm-diis
                   (3 nearest neighbors central finite-difference stencil)
Poisson Solver:    Jacobi
                   (3 nearest neighbors central finite-difference stencil)

Interpolation:     6th Order
Reference Energy:  -2067.756486

Gamma Point Calculation
Total number of cores used: 16
Domain Decomposition: 2 x 2 x 4
MatrixOperator buffer_size: default value or 
                            see value of nblock in input file
Diagonalizer layout: Serial LAPACK
Orthonormalizer layout: Serial LAPACK

Symmetries present: 1
1 k-point in the Irreducible Part of the Brillouin Zone (total: 1)
Linear Mixing Parameter:           0.25
Pulay Mixing with 3 Old Densities
No Damping of Long Wave Oscillations

Convergence Criteria:
Total Energy Change:           0.0005 eV / electron
Integral of Absolute Density Change:    0.0001 electrons
Integral of Absolute Eigenstate Change: 1e-09
Number of Bands in Calculation:         24
Bands to Converge:                      Occupied States Only
Number of Valence Electrons:            8
                     log10-error:    Total        Iterations:
           Time      WFS    Density  Energy       Fermi  Poisson
iter:   1  11:32:15  -1.9            -23.28827    0      10     
iter:   2  11:32:22  -3.0   -2.0     -23.32506    0      6      
iter:   3  11:32:29  -3.0   -2.0     -23.31619    0      8      
iter:   4  11:32:36  -4.0   -2.3     -23.31963    0      6      
iter:   5  11:32:43  -5.0   -2.8     -23.31975    0      3      
iter:   6  11:32:50  -4.5   -2.9     -23.31962    0      6      
iter:   7  11:32:57  -5.2   -3.1     -23.31969    0      4      
iter:   8  11:33:04  -4.9   -3.4     -23.31966    0      4      
iter:   9  11:33:11  -4.7   -3.8     -23.31968    0      4      
iter:  10  11:33:18  -4.8   -3.6     -23.31966    0      3      
iter:  11  11:33:25  -5.1   -4.5     -23.31957    0      1      
iter:  12  11:33:32  -5.5   -4.7     -23.31969    0      1      
iter:  13  11:33:39  -5.5   -4.9     -23.31970    0      1      
iter:  14  11:33:46  -5.5   -5.1     -23.31970    0      1      
iter:  15  11:33:53  -5.7   -5.1     -23.31966    0      1      
iter:  16  11:33:59  -6.1   -5.3     -23.31967    0      1      
iter:  17  11:34:06  -6.2   -5.7     -23.31967    0      1      
iter:  18  11:34:13  -6.4   -6.0     -23.31968    0      1      
iter:  19  11:34:20  -7.1   -6.1     -23.31968    0      1      
iter:  20  11:34:27  -7.4   -6.4     -23.31968    0      1      
iter:  21  11:34:34  -7.1   -6.4     -23.31968    0      1      
iter:  22  11:34:41  -7.5   -6.5     -23.31968    0      1      
iter:  23  11:34:47  -7.7   -6.7     -23.31968    0      1      
iter:  24  11:34:54  -7.2   -6.7     -23.31968    0      1      
iter:  25  11:35:01  -7.7   -6.9     -23.31968    0      1      
iter:  26  11:35:08  -9.1   -7.0     -23.31968    0      1      
------------------------------------
Converged After 26 Iterations.

Energy Contributions Relative to Reference Atoms:(reference = -2067.75649)
-------------------------
Kinetic:        +19.09477
Potential:      -21.11730
External:        +0.00000
XC:             -21.47889
Entropy (-ST):   -0.00000
Local:           +0.18175
-------------------------
Free Energy:    -23.31968
Zero Kelvin:    -23.31968

Fermi Level: -4.68959
 Band   Eigenvalues  Occupancy
   0    -25.43151     2.00000
   1    -13.34223     2.00000
   2     -9.71664     2.00000
   3     -7.60133     2.00000
   4     -1.77785     0.00000
   5     -0.94992     0.00000
   6     -0.73508     0.00000
   7     -0.61825     0.00000
   8     -0.30045     0.00000
   9     -0.16766     0.00000
  10     -0.09552     0.00000
  11      0.03601     0.00000
  12      0.46270     0.00000
  13      0.57529     0.00000
  14      0.98755     0.00000
  15      1.04949     0.00000
  16      1.14023     0.00000
  17      1.25897     0.00000
  18      1.34704     0.00000
  19      1.74183     0.00000
  20      1.80234     0.00000
  21      1.99826     0.00000
  22      2.10158     0.00000
  23      2.18284     0.00000


Total Charge:  0.000000 electrons
Dipole Moment: [-0.08440039  0.25600826  0.26723895]

Forces in eV/Ang:
  0 O    -0.11481    0.38774    0.02185
  1 H    -0.00026   -0.02619   -0.02697
  2 H     0.12145   -0.34972    0.01440

Positions:
  0 O     5.2955    5.0708    5.0603
  1 H     5.3293    4.9348    6.0210
  2 H     5.0031    5.9599    4.9337

        .------------------------.  
       /|                        |  
      / |                        |  
     /  |                        |  
    /   |                        |  
   /    |                        |  
  /     |                        |  
 *      |                        |  
 |      |                        |  
 |      |                        |  
 |      |        H               |  
 |      |        O               |  
 |      |                        |  
 |      |                        |  
 |      .------------------------.  
 |     /                        /   
 |    /                        /    
 |   /                        /     
 |  /                        /      
 | /                        /       
 |/                        /        
 *------------------------*         

Unit Cell:
           Periodic     X           Y           Z      Points  Spacing
  --------------------------------------------------------------------
  1. axis:    no    10.312107    0.000000    0.000000    52     0.1983
  2. axis:    no     0.000000   10.960567    0.000000    56     0.1957
  3. axis:    no     0.000000    0.000000   11.010000    56     0.1966

O-setup:
  name   : Oxygen
  id     : 67c3882fbc6f3c92bc2234e8514132d8
  Z      : 8
  valence: 6
  core   : 2
  charge : 0.0
  file   : /fs/local/linux26_x86_64/appl/nano/gpaw/setups/0.8/O.revPBE.gz
  cutoffs: 0.74(comp), 1.30(filt), 0.83(core), lmax=2
  valence states:
            energy   radius
    2s(2)  -23.998   0.741
    2p(4)   -8.969   0.741
    *s       3.214   0.741
    *p      18.243   0.741
    *d       0.000   0.741

Using partial waves for O as LCAO basis

H-setup:
  name   : Hydrogen
  id     : 3c6a698a8690aeeacbc6041f547121c6
  Z      : 1
  valence: 1
  core   : 0
  charge : 0.0
  file   : /fs/local/linux26_x86_64/appl/nano/gpaw/setups/0.8/H.revPBE.gz
  cutoffs: 0.48(comp), 0.85(filt), 0.53(core), lmax=2
  valence states:
            energy   radius
    1s(1)   -6.547   0.476
    *s      20.664   0.476
    *p       0.000   0.476

Using partial waves for H as LCAO basis

Using the vdW-DF2 Exchange-Correlation Functional.
Spin-Paired Calculation
Total Charge:      0.000000
Fermi Temperature: 0.000000
Mode: Finite-difference
Eigensolver:       rmm-diis
                   (3 nearest neighbors central finite-difference stencil)
Poisson Solver:    Jacobi
                   (3 nearest neighbors central finite-difference stencil)

Interpolation:     6th Order
Reference Energy:  -2067.756486

Gamma Point Calculation
Total number of cores used: 16
Domain Decomposition: 2 x 2 x 4
MatrixOperator buffer_size: default value or 
                            see value of nblock in input file
Diagonalizer layout: Serial LAPACK
Orthonormalizer layout: Serial LAPACK

Symmetries present: 1
1 k-point in the Irreducible Part of the Brillouin Zone (total: 1)
Linear Mixing Parameter:           0.25
Pulay Mixing with 3 Old Densities
No Damping of Long Wave Oscillations

Convergence Criteria:
Total Energy Change:           0.0005 eV / electron
Integral of Absolute Density Change:    0.0001 electrons
Integral of Absolute Eigenstate Change: 1e-09
Number of Bands in Calculation:         24
Bands to Converge:                      Occupied States Only
Number of Valence Electrons:            8
                     log10-error:    Total        Iterations:
           Time      WFS    Density  Energy       Fermi  Poisson
iter:   1  11:35:15  -0.7            -22.82634    0      12     
iter:   2  11:35:22  -1.9   -1.4     -23.37497    0      8      
iter:   3  11:35:30  -1.6   -1.5     -23.25992    0      12     
iter:   4  11:35:37  -2.5   -1.5     -23.28653    0      10     
iter:   5  11:35:44  -3.8   -2.3     -23.29534    0      6      
iter:   6  11:35:51  -4.2   -2.5     -23.29558    0      6      
iter:   7  11:35:58  -4.7   -3.0     -23.29564    0      4      
iter:   8  11:36:05  -4.3   -3.2     -23.29562    0      5      
iter:   9  11:36:12  -4.5   -3.6     -23.29559    0      2      
iter:  10  11:36:19  -4.2   -3.7     -23.29554    0      3      
iter:  11  11:36:26  -4.2   -3.8     -23.29560    0      2      
iter:  12  11:36:33  -4.0   -4.0     -23.29557    0      3      
iter:  13  11:36:40  -4.4   -4.3     -23.29563    0      2      
iter:  14  11:36:46  -4.3   -4.5     -23.29556    0      1      
iter:  15  11:36:53  -4.5   -4.6     -23.29560    0      2      
iter:  16  11:37:00  -4.8   -4.8     -23.29561    0      1      
iter:  17  11:37:07  -5.5   -4.8     -23.29561    0      1      
iter:  18  11:37:14  -5.6   -4.9     -23.29561    0      1      
iter:  19  11:37:21  -4.8   -5.0     -23.29561    0      1      
iter:  20  11:37:28  -4.9   -5.1     -23.29560    0      1      
iter:  21  11:37:35  -5.4   -5.3     -23.29560    0      1      
iter:  22  11:37:41  -6.4   -5.5     -23.29561    0      1      
iter:  23  11:37:48  -5.7   -5.6     -23.29561    0      1      
iter:  24  11:37:55  -6.5   -5.7     -23.29561    0      1      
iter:  25  11:38:02  -5.8   -5.8     -23.29561    0      1      
iter:  26  11:38:09  -5.5   -5.7     -23.29561    0      1      
iter:  27  11:38:16  -6.6   -5.8     -23.29561    0      1      
iter:  28  11:38:22  -6.9   -6.1     -23.29561    0      1      
iter:  29  11:38:29  -7.0   -6.4     -23.29561    0      1      
iter:  30  11:38:36  -8.0   -6.3     -23.29561    0      1      
iter:  31  11:38:43  -6.8   -6.5     -23.29561    0      1      
iter:  32  11:38:50  -7.1   -6.4     -23.29561    0      1      
iter:  33  11:38:57  -7.6   -6.7     -23.29561    0      1      
iter:  34  11:39:04  -7.4   -6.5     -23.29561    0      1      
iter:  35  11:39:10  -8.1   -6.9     -23.29561    0      1      
iter:  36  11:39:17  -8.9   -6.8     -23.29561    0      1      
iter:  37  11:39:24  -8.5   -7.0     -23.29561    0      1      
iter:  38  11:39:31  -8.9   -7.0     -23.29561    0      1      
iter:  39  11:39:38  -8.5   -7.3     -23.29561    0      1      
iter:  40  11:39:45  -9.5   -7.2     -23.29561    0      1      
------------------------------------
Converged After 40 Iterations.

Energy Contributions Relative to Reference Atoms:(reference = -2067.75649)
-------------------------
Kinetic:        +21.09037
Potential:      -22.54472
External:        +0.00000
XC:             -22.02264
Entropy (-ST):   -0.00000
Local:           +0.18138
-------------------------
Free Energy:    -23.29561
Zero Kelvin:    -23.29561

Fermi Level: -4.68598
 Band   Eigenvalues  Occupancy
   0    -25.63682     2.00000
   1    -13.66070     2.00000
   2     -9.62893     2.00000
   3     -7.63361     2.00000
   4     -1.73834     0.00000
   5     -0.95289     0.00000
   6     -0.73688     0.00000
   7     -0.62545     0.00000
   8     -0.28392     0.00000
   9     -0.15858     0.00000
  10     -0.10914     0.00000
  11      0.02028     0.00000
  12      0.45497     0.00000
  13      0.56491     0.00000
  14      0.97467     0.00000
  15      1.03386     0.00000
  16      1.19157     0.00000
  17      1.23918     0.00000
  18      1.35743     0.00000
  19      1.74229     0.00000
  20      1.81075     0.00000
  21      1.99708     0.00000
  22      2.09799     0.00000
  23      2.16894     0.00000


Total Charge:  0.000000 electrons
Dipole Moment: [-0.08377924  0.24431678  0.26627205]

Forces in eV/Ang:
  0 O     0.55623   -1.63509    0.00145
  1 H    -0.03129    0.06356    0.14341
  2 H    -0.50209    1.55403   -0.12877

Positions:
  0 O     5.2978    5.0523    5.0547
  1 H     5.3305    4.9380    6.0221
  2 H     4.9971    5.9723    4.9353

        .------------------------.  
       /|                        |  
      / |                        |  
     /  |                        |  
    /   |                        |  
   /    |                        |  
  /     |                        |  
 *      |                        |  
 |      |                        |  
 |      |                        |  
 |      |        H               |  
 |      |        O               |  
 |      |                        |  
 |      |                        |  
 |      .------------------------.  
 |     /                        /   
 |    /                        /    
 |   /                        /     
 |  /                        /      
 | /                        /       
 |/                        /        
 *------------------------*         

Unit Cell:
           Periodic     X           Y           Z      Points  Spacing
  --------------------------------------------------------------------
  1. axis:    no    10.312107    0.000000    0.000000    52     0.1983
  2. axis:    no     0.000000   10.960567    0.000000    56     0.1957
  3. axis:    no     0.000000    0.000000   11.010000    56     0.1966

O-setup:
  name   : Oxygen
  id     : 67c3882fbc6f3c92bc2234e8514132d8
  Z      : 8
  valence: 6
  core   : 2
  charge : 0.0
  file   : /fs/local/linux26_x86_64/appl/nano/gpaw/setups/0.8/O.revPBE.gz
  cutoffs: 0.74(comp), 1.30(filt), 0.83(core), lmax=2
  valence states:
            energy   radius
    2s(2)  -23.998   0.741
    2p(4)   -8.969   0.741
    *s       3.214   0.741
    *p      18.243   0.741
    *d       0.000   0.741

Using partial waves for O as LCAO basis

H-setup:
  name   : Hydrogen
  id     : 3c6a698a8690aeeacbc6041f547121c6
  Z      : 1
  valence: 1
  core   : 0
  charge : 0.0
  file   : /fs/local/linux26_x86_64/appl/nano/gpaw/setups/0.8/H.revPBE.gz
  cutoffs: 0.48(comp), 0.85(filt), 0.53(core), lmax=2
  valence states:
            energy   radius
    1s(1)   -6.547   0.476
    *s      20.664   0.476
    *p       0.000   0.476

Using partial waves for H as LCAO basis

Using the vdW-DF2 Exchange-Correlation Functional.
Spin-Paired Calculation
Total Charge:      0.000000
Fermi Temperature: 0.000000
Mode: Finite-difference
Eigensolver:       rmm-diis
                   (3 nearest neighbors central finite-difference stencil)
Poisson Solver:    Jacobi
                   (3 nearest neighbors central finite-difference stencil)

Interpolation:     6th Order
Reference Energy:  -2067.756486

Gamma Point Calculation
Total number of cores used: 16
Domain Decomposition: 2 x 2 x 4
MatrixOperator buffer_size: default value or 
                            see value of nblock in input file
Diagonalizer layout: Serial LAPACK
Orthonormalizer layout: Serial LAPACK

Symmetries present: 1
1 k-point in the Irreducible Part of the Brillouin Zone (total: 1)
Linear Mixing Parameter:           0.25
Pulay Mixing with 3 Old Densities
No Damping of Long Wave Oscillations

Convergence Criteria:
Total Energy Change:           0.0005 eV / electron
Integral of Absolute Density Change:    0.0001 electrons
Integral of Absolute Eigenstate Change: 1e-09
Number of Bands in Calculation:         24
Bands to Converge:                      Occupied States Only
Number of Valence Electrons:            8
                     log10-error:    Total        Iterations:
           Time      WFS    Density  Energy       Fermi  Poisson
iter:   1  11:39:52  -0.9            -23.02528    0      12     
iter:   2  11:39:59  -2.1   -1.5     -23.36967    0      8      
iter:   3  11:40:06  -2.2   -1.6     -23.29179    0      10     
iter:   4  11:40:13  -3.1   -2.3     -23.32012    0      6      
iter:   5  11:40:20  -3.5   -2.4     -23.32182    0      5      
iter:   6  11:40:27  -4.2   -2.5     -23.32152    0      6      
iter:   7  11:40:34  -4.2   -2.7     -23.32117    0      6      
iter:   8  11:40:41  -4.9   -3.2     -23.32138    0      4      
iter:   9  11:40:48  -4.6   -3.4     -23.32137    0      4      
iter:  10  11:40:55  -4.3   -3.7     -23.32137    0      4      
iter:  11  11:41:02  -4.5   -3.5     -23.32136    0      3      
iter:  12  11:41:09  -4.9   -4.4     -23.32137    0      2      
iter:  13  11:41:16  -5.4   -4.3     -23.32152    0      1      
iter:  14  11:41:23  -4.9   -4.5     -23.32145    0      2      
iter:  15  11:41:30  -4.9   -4.4     -23.32135    0      2      
iter:  16  11:41:37  -5.4   -4.9     -23.32135    0      1      
iter:  17  11:41:44  -5.9   -5.0     -23.32142    0      1      
iter:  18  11:41:50  -6.1   -5.4     -23.32142    0      1      
iter:  19  11:41:57  -6.4   -5.4     -23.32139    0      1      
iter:  20  11:42:04  -6.4   -5.5     -23.32138    0      1      
iter:  21  11:42:11  -6.8   -5.7     -23.32140    0      1      
iter:  22  11:42:18  -7.3   -5.9     -23.32140    0      1      
iter:  23  11:42:25  -6.9   -5.9     -23.32140    0      1      
iter:  24  11:42:31  -7.3   -6.2     -23.32139    0      1      
iter:  25  11:42:38  -7.6   -6.4     -23.32139    0      1      
iter:  26  11:42:45  -7.4   -6.5     -23.32140    0      1      
iter:  27  11:42:52  -7.2   -6.7     -23.32140    0      1      
iter:  28  11:42:59  -7.4   -6.7     -23.32140    0      1      
iter:  29  11:43:06  -8.3   -7.0     -23.32140    0      1      
iter:  30  11:43:13  -8.8   -7.2     -23.32140    0      1      
iter:  31  11:43:19  -8.9   -7.2     -23.32140    0      1      
iter:  32  11:43:26  -10.0  -7.4     -23.32140    0      1      
------------------------------------
Converged After 32 Iterations.

Energy Contributions Relative to Reference Atoms:(reference = -2067.75649)
-------------------------
Kinetic:        +19.48729
Potential:      -21.40123
External:        +0.00000
XC:             -21.58904
Entropy (-ST):   -0.00000
Local:           +0.18158
-------------------------
Free Energy:    -23.32140
Zero Kelvin:    -23.32140

Fermi Level: -4.68804
 Band   Eigenvalues  Occupancy
   0    -25.47267     2.00000
   1    -13.40731     2.00000
   2     -9.69867     2.00000
   3     -7.60778     2.00000
   4     -1.76830     0.00000
   5     -0.95060     0.00000
   6     -0.73301     0.00000
   7     -0.61684     0.00000
   8     -0.29520     0.00000
   9     -0.16717     0.00000
  10     -0.10250     0.00000
  11      0.03134     0.00000
  12      0.46001     0.00000
  13      0.57158     0.00000
  14      0.98744     0.00000
  15      1.04447     0.00000
  16      1.15427     0.00000
  17      1.25188     0.00000
  18      1.34658     0.00000
  19      1.74166     0.00000
  20      1.80528     0.00000
  21      1.99735     0.00000
  22      2.09920     0.00000
  23      2.17553     0.00000


Total Charge:  -0.000000 electrons
Dipole Moment: [-0.0842865   0.25367474  0.26701621]

Forces in eV/Ang:
  0 O     0.01063    0.01572    0.01022
  1 H    -0.00638   -0.00745    0.01096
  2 H     0.00871   -0.00019   -0.00503

Positions:
  0 O     5.2991    5.0532    5.0558
  1 H     5.3297    4.9375    6.0230
  2 H     4.9979    5.9726    4.9350

        .------------------------.  
       /|                        |  
      / |                        |  
     /  |                        |  
    /   |                        |  
   /    |                        |  
  /     |                        |  
 *      |                        |  
 |      |                        |  
 |      |                        |  
 |      |        H               |  
 |      |        O               |  
 |      |                        |  
 |      |                        |  
 |      .------------------------.  
 |     /                        /   
 |    /                        /    
 |   /                        /     
 |  /                        /      
 | /                        /       
 |/                        /        
 *------------------------*         

Unit Cell:
           Periodic     X           Y           Z      Points  Spacing
  --------------------------------------------------------------------
  1. axis:    no    10.312107    0.000000    0.000000    52     0.1983
  2. axis:    no     0.000000   10.960567    0.000000    56     0.1957
  3. axis:    no     0.000000    0.000000   11.010000    56     0.1966

O-setup:
  name   : Oxygen
  id     : 67c3882fbc6f3c92bc2234e8514132d8
  Z      : 8
  valence: 6
  core   : 2
  charge : 0.0
  file   : /fs/local/linux26_x86_64/appl/nano/gpaw/setups/0.8/O.revPBE.gz
  cutoffs: 0.74(comp), 1.30(filt), 0.83(core), lmax=2
  valence states:
            energy   radius
    2s(2)  -23.998   0.741
    2p(4)   -8.969   0.741
    *s       3.214   0.741
    *p      18.243   0.741
    *d       0.000   0.741

Using partial waves for O as LCAO basis

H-setup:
  name   : Hydrogen
  id     : 3c6a698a8690aeeacbc6041f547121c6
  Z      : 1
  valence: 1
  core   : 0
  charge : 0.0
  file   : /fs/local/linux26_x86_64/appl/nano/gpaw/setups/0.8/H.revPBE.gz
  cutoffs: 0.48(comp), 0.85(filt), 0.53(core), lmax=2
  valence states:
            energy   radius
    1s(1)   -6.547   0.476
    *s      20.664   0.476
    *p       0.000   0.476

Using partial waves for H as LCAO basis

Using the vdW-DF2 Exchange-Correlation Functional.
Spin-Paired Calculation
Total Charge:      0.000000
Fermi Temperature: 0.000000
Mode: Finite-difference
Eigensolver:       rmm-diis
                   (3 nearest neighbors central finite-difference stencil)
Poisson Solver:    Jacobi
                   (3 nearest neighbors central finite-difference stencil)

Interpolation:     6th Order
Reference Energy:  -2067.756486

Gamma Point Calculation
Total number of cores used: 16
Domain Decomposition: 2 x 2 x 4
MatrixOperator buffer_size: default value or 
                            see value of nblock in input file
Diagonalizer layout: Serial LAPACK
Orthonormalizer layout: Serial LAPACK

Symmetries present: 1
1 k-point in the Irreducible Part of the Brillouin Zone (total: 1)
Linear Mixing Parameter:           0.25
Pulay Mixing with 3 Old Densities
No Damping of Long Wave Oscillations

Convergence Criteria:
Total Energy Change:           0.0005 eV / electron
Integral of Absolute Density Change:    0.0001 electrons
Integral of Absolute Eigenstate Change: 1e-09
Number of Bands in Calculation:         24
Bands to Converge:                      Occupied States Only
Number of Valence Electrons:            8
                     log10-error:    Total        Iterations:
           Time      WFS    Density  Energy       Fermi  Poisson
iter:   1  11:43:33  -3.0            -23.31879    0      9      
iter:   2  11:43:40  -4.0   -2.5     -23.32183    0      4      
iter:   3  11:43:47  -3.8   -2.6     -23.32134    0      6      
iter:   4  11:43:54  -4.6   -2.6     -23.32142    0      5      
iter:   5  11:44:01  -5.6   -3.5     -23.32141    0      3      
iter:   6  11:44:08  -5.7   -3.7     -23.32143    0      3      
iter:   7  11:44:15  -5.5   -3.9     -23.32144    0      3      
iter:   8  11:44:22  -5.1   -4.2     -23.32146    0      3      
iter:   9  11:44:29  -5.2   -4.7     -23.32144    0      1      
iter:  10  11:44:36  -6.2   -4.8     -23.32148    0      1      
iter:  11  11:44:43  -5.8   -4.9     -23.32146    0      2      
iter:  12  11:44:50  -5.5   -4.8     -23.32139    0      1      
iter:  13  11:44:56  -5.6   -5.2     -23.32143    0      1      
iter:  14  11:45:03  -5.5   -5.3     -23.32145    0      1      
iter:  15  11:45:10  -5.6   -5.5     -23.32146    0      1      
iter:  16  11:45:17  -6.6   -5.6     -23.32145    0      1      
iter:  17  11:45:24  -6.6   -5.9     -23.32145    0      1      
iter:  18  11:45:31  -6.3   -6.0     -23.32145    0      1      
iter:  19  11:45:38  -6.4   -6.1     -23.32145    0      1      
iter:  20  11:45:44  -7.5   -6.3     -23.32145    0      1      
iter:  21  11:45:51  -6.9   -6.4     -23.32146    0      1      
iter:  22  11:45:58  -6.3   -6.3     -23.32145    0      1      
iter:  23  11:46:05  -6.9   -6.4     -23.32145    0      1      
iter:  24  11:46:12  -8.4   -6.8     -23.32145    0      1      
iter:  25  11:46:19  -9.4   -6.8     -23.32145    0      1      
------------------------------------
Converged After 25 Iterations.

Energy Contributions Relative to Reference Atoms:(reference = -2067.75649)
-------------------------
Kinetic:        +19.48875
Potential:      -21.40120
External:        +0.00000
XC:             -21.59064
Entropy (-ST):   -0.00000
Local:           +0.18164
-------------------------
Free Energy:    -23.32145
Zero Kelvin:    -23.32145

Fermi Level: -4.68709
 Band   Eigenvalues  Occupancy
   0    -25.47146     2.00000
   1    -13.41348     2.00000
   2     -9.69308     2.00000
   3     -7.60736     2.00000
   4     -1.76681     0.00000
   5     -0.94776     0.00000
   6     -0.73209     0.00000
   7     -0.61410     0.00000
   8     -0.29089     0.00000
   9     -0.16365     0.00000
  10     -0.09812     0.00000
  11      0.03476     0.00000
  12      0.46441     0.00000
  13      0.57538     0.00000
  14      0.98952     0.00000
  15      1.04861     0.00000
  16      1.15652     0.00000
  17      1.25569     0.00000
  18      1.34932     0.00000
  19      1.74278     0.00000
  20      1.80762     0.00000
  21      2.00109     0.00000
  22      2.10176     0.00000
  23      2.17774     0.00000


Total Charge:  -0.000000 electrons
Dipole Moment: [-0.0851774   0.25319674  0.26669568]

Forces in eV/Ang:
  0 O     0.01459    0.00406    0.00426
  1 H    -0.00921    0.00154    0.00738
  2 H     0.00642    0.00642    0.00274

Positions:
  0 O     5.3027    5.0557    5.0584
  1 H     5.3277    4.9363    6.0255
  2 H     5.0000    5.9736    4.9343

        .------------------------.  
       /|                        |  
      / |                        |  
     /  |                        |  
    /   |                        |  
   /    |                        |  
  /     |                        |  
 *      |                        |  
 |      |                        |  
 |      |                        |  
 |      |        H               |  
 |      |        O               |  
 |      |                        |  
 |      |                        |  
 |      .------------------------.  
 |     /                        /   
 |    /                        /    
 |   /                        /     
 |  /                        /      
 | /                        /       
 |/                        /        
 *------------------------*         

Unit Cell:
           Periodic     X           Y           Z      Points  Spacing
  --------------------------------------------------------------------
  1. axis:    no    10.312107    0.000000    0.000000    52     0.1983
  2. axis:    no     0.000000   10.960567    0.000000    56     0.1957
  3. axis:    no     0.000000    0.000000   11.010000    56     0.1966

O-setup:
  name   : Oxygen
  id     : 67c3882fbc6f3c92bc2234e8514132d8
  Z      : 8
  valence: 6
  core   : 2
  charge : 0.0
  file   : /fs/local/linux26_x86_64/appl/nano/gpaw/setups/0.8/O.revPBE.gz
  cutoffs: 0.74(comp), 1.30(filt), 0.83(core), lmax=2
  valence states:
            energy   radius
    2s(2)  -23.998   0.741
    2p(4)   -8.969   0.741
    *s       3.214   0.741
    *p      18.243   0.741
    *d       0.000   0.741

Using partial waves for O as LCAO basis

H-setup:
  name   : Hydrogen
  id     : 3c6a698a8690aeeacbc6041f547121c6
  Z      : 1
  valence: 1
  core   : 0
  charge : 0.0
  file   : /fs/local/linux26_x86_64/appl/nano/gpaw/setups/0.8/H.revPBE.gz
  cutoffs: 0.48(comp), 0.85(filt), 0.53(core), lmax=2
  valence states:
            energy   radius
    1s(1)   -6.547   0.476
    *s      20.664   0.476
    *p       0.000   0.476

Using partial waves for H as LCAO basis

Using the vdW-DF2 Exchange-Correlation Functional.
Spin-Paired Calculation
Total Charge:      0.000000
Fermi Temperature: 0.000000
Mode: Finite-difference
Eigensolver:       rmm-diis
                   (3 nearest neighbors central finite-difference stencil)
Poisson Solver:    Jacobi
                   (3 nearest neighbors central finite-difference stencil)

Interpolation:     6th Order
Reference Energy:  -2067.756486

Gamma Point Calculation
Total number of cores used: 16
Domain Decomposition: 2 x 2 x 4
MatrixOperator buffer_size: default value or 
                            see value of nblock in input file
Diagonalizer layout: Serial LAPACK
Orthonormalizer layout: Serial LAPACK

Symmetries present: 1
1 k-point in the Irreducible Part of the Brillouin Zone (total: 1)
Linear Mixing Parameter:           0.25
Pulay Mixing with 3 Old Densities
No Damping of Long Wave Oscillations

Convergence Criteria:
Total Energy Change:           0.0005 eV / electron
Integral of Absolute Density Change:    0.0001 electrons
Integral of Absolute Eigenstate Change: 1e-09
Number of Bands in Calculation:         24
Bands to Converge:                      Occupied States Only
Number of Valence Electrons:            8
                     log10-error:    Total        Iterations:
           Time      WFS    Density  Energy       Fermi  Poisson
iter:   1  11:46:26  -2.1            -23.30265    0      11     
iter:   2  11:46:33  -3.2   -2.1     -23.32429    0      5      
iter:   3  11:46:40  -3.0   -2.2     -23.32088    0      8      
iter:   4  11:46:47  -3.9   -2.2     -23.32121    0      7      
iter:   5  11:46:54  -4.8   -3.1     -23.32145    0      4      
iter:   6  11:47:01  -4.9   -3.3     -23.32148    0      4      
iter:   7  11:47:08  -5.0   -3.5     -23.32150    0      4      
iter:   8  11:47:15  -4.9   -3.8     -23.32153    0      3      
iter:   9  11:47:22  -5.0   -4.4     -23.32148    0      1      
iter:  10  11:47:29  -5.0   -4.4     -23.32151    0      2      
iter:  11  11:47:36  -4.8   -4.6     -23.32150    0      1      
iter:  12  11:47:42  -4.7   -4.7     -23.32151    0      1      
iter:  13  11:47:49  -5.1   -4.8     -23.32146    0      1      
iter:  14  11:47:56  -5.3   -5.1     -23.32149    0      1      
iter:  15  11:48:03  -5.4   -5.3     -23.32150    0      1      
iter:  16  11:48:10  -6.1   -5.3     -23.32150    0      1      
iter:  17  11:48:17  -5.6   -5.5     -23.32150    0      1      
iter:  18  11:48:24  -5.3   -5.8     -23.32151    0      1      
iter:  19  11:48:30  -5.9   -5.7     -23.32151    0      1      
iter:  20  11:48:37  -5.9   -6.2     -23.32151    0      1      
iter:  21  11:48:44  -6.6   -6.0     -23.32151    0      1      
iter:  22  11:48:51  -6.2   -6.3     -23.32151    0      1      
iter:  23  11:48:58  -6.0   -6.3     -23.32151    0      1      
iter:  24  11:49:05  -6.8   -6.2     -23.32151    0      1      
iter:  25  11:49:11  -6.2   -6.5     -23.32151    0      1      
iter:  26  11:49:18  -7.2   -6.4     -23.32151    0      1      
iter:  27  11:49:25  -7.8   -6.5     -23.32151    0      1      
iter:  28  11:49:32  -6.7   -6.5     -23.32151    0      1      
iter:  29  11:49:39  -7.8   -6.4     -23.32151    0      1      
iter:  30  11:49:46  -7.2   -6.7     -23.32151    0      1      
iter:  31  11:49:53  -8.3   -6.7     -23.32151    0      1      
iter:  32  11:49:59  -8.9   -6.8     -23.32151    0      1      
iter:  33  11:50:06  -7.8   -6.7     -23.32151    0      1      
iter:  34  11:50:13  -7.3   -6.9     -23.32151    0      1      
iter:  35  11:50:20  -7.5   -6.8     -23.32151    0      1      
iter:  36  11:50:27  -8.2   -7.0     -23.32151    0      1      
iter:  37  11:50:34  -8.2   -7.1     -23.32151    0      1      
iter:  38  11:50:41  -9.0   -7.2     -23.32151    0      1      
iter:  39  11:50:47  -9.2   -7.2     -23.32151    0      1      
------------------------------------
Converged After 39 Iterations.

Energy Contributions Relative to Reference Atoms:(reference = -2067.75649)
-------------------------
Kinetic:        +19.49072
Potential:      -21.39966
External:        +0.00000
XC:             -21.59437
Entropy (-ST):   -0.00000
Local:           +0.18180
-------------------------
Free Energy:    -23.32151
Zero Kelvin:    -23.32151

Fermi Level: -4.68586
 Band   Eigenvalues  Occupancy
   0    -25.46803     2.00000
   1    -13.42959     2.00000
   2     -9.67828     2.00000
   3     -7.60621     2.00000
   4     -1.76550     0.00000
   5     -0.94867     0.00000
   6     -0.73416     0.00000
   7     -0.61768     0.00000
   8     -0.29570     0.00000
   9     -0.16604     0.00000
  10     -0.10216     0.00000
  11      0.03141     0.00000
  12      0.46248     0.00000
  13      0.57069     0.00000
  14      0.98829     0.00000
  15      1.04712     0.00000
  16      1.15423     0.00000
  17      1.25172     0.00000
  18      1.34977     0.00000
  19      1.73956     0.00000
  20      1.80780     0.00000
  21      1.99801     0.00000
  22      2.09846     0.00000
  23      2.17264     0.00000


Total Charge:  -0.000000 electrons
Dipole Moment: [-0.08754737  0.25191974  0.26583568]

Forces in eV/Ang:
  0 O     0.02147   -0.03149   -0.01283
  1 H    -0.01721    0.02498   -0.00250
  2 H     0.00017    0.02383    0.02288

Positions:
  0 O     5.3054    5.0566    5.0592
  1 H     5.3255    4.9371    6.0265
  2 H     5.0015    5.9744    4.9354

        .------------------------.  
       /|                        |  
      / |                        |  
     /  |                        |  
    /   |                        |  
   /    |                        |  
  /     |                        |  
 *      |                        |  
 |      |                        |  
 |      |                        |  
 |      |        H               |  
 |      |        O               |  
 |      |                        |  
 |      |                        |  
 |      .------------------------.  
 |     /                        /   
 |    /                        /    
 |   /                        /     
 |  /                        /      
 | /                        /       
 |/                        /        
 *------------------------*         

Unit Cell:
           Periodic     X           Y           Z      Points  Spacing
  --------------------------------------------------------------------
  1. axis:    no    10.312107    0.000000    0.000000    52     0.1983
  2. axis:    no     0.000000   10.960567    0.000000    56     0.1957
  3. axis:    no     0.000000    0.000000   11.010000    56     0.1966

O-setup:
  name   : Oxygen
  id     : 67c3882fbc6f3c92bc2234e8514132d8
  Z      : 8
  valence: 6
  core   : 2
  charge : 0.0
  file   : /fs/local/linux26_x86_64/appl/nano/gpaw/setups/0.8/O.revPBE.gz
  cutoffs: 0.74(comp), 1.30(filt), 0.83(core), lmax=2
  valence states:
            energy   radius
    2s(2)  -23.998   0.741
    2p(4)   -8.969   0.741
    *s       3.214   0.741
    *p      18.243   0.741
    *d       0.000   0.741

Using partial waves for O as LCAO basis

H-setup:
  name   : Hydrogen
  id     : 3c6a698a8690aeeacbc6041f547121c6
  Z      : 1
  valence: 1
  core   : 0
  charge : 0.0
  file   : /fs/local/linux26_x86_64/appl/nano/gpaw/setups/0.8/H.revPBE.gz
  cutoffs: 0.48(comp), 0.85(filt), 0.53(core), lmax=2
  valence states:
            energy   radius
    1s(1)   -6.547   0.476
    *s      20.664   0.476
    *p       0.000   0.476

Using partial waves for H as LCAO basis

Using the vdW-DF2 Exchange-Correlation Functional.
Spin-Paired Calculation
Total Charge:      0.000000
Fermi Temperature: 0.000000
Mode: Finite-difference
Eigensolver:       rmm-diis
                   (3 nearest neighbors central finite-difference stencil)
Poisson Solver:    Jacobi
                   (3 nearest neighbors central finite-difference stencil)

Interpolation:     6th Order
Reference Energy:  -2067.756486

Gamma Point Calculation
Total number of cores used: 16
Domain Decomposition: 2 x 2 x 4
MatrixOperator buffer_size: default value or 
                            see value of nblock in input file
Diagonalizer layout: Serial LAPACK
Orthonormalizer layout: Serial LAPACK

Symmetries present: 1
1 k-point in the Irreducible Part of the Brillouin Zone (total: 1)
Linear Mixing Parameter:           0.25
Pulay Mixing with 3 Old Densities
No Damping of Long Wave Oscillations

Convergence Criteria:
Total Energy Change:           0.0005 eV / electron
Integral of Absolute Density Change:    0.0001 electrons
Integral of Absolute Eigenstate Change: 1e-09
Number of Bands in Calculation:         24
Bands to Converge:                      Occupied States Only
Number of Valence Electrons:            8
                     log10-error:    Total        Iterations:
           Time      WFS    Density  Energy       Fermi  Poisson
iter:   1  11:50:55  -2.6            -23.31470    0      10     
iter:   2  11:51:02  -3.6   -2.3     -23.32255    0      5      
iter:   3  11:51:09  -3.5   -2.4     -23.32147    0      7      
iter:   4  11:51:16  -4.3   -2.4     -23.32148    0      6      
iter:   5  11:51:23  -5.8   -3.3     -23.32166    0      3      
iter:   6  11:51:30  -4.4   -3.2     -23.32158    0      5      
iter:   7  11:51:37  -4.4   -3.1     -23.32158    0      4      
iter:   8  11:51:44  -4.6   -3.8     -23.32159    0      4      
iter:   9  11:51:51  -4.7   -3.9     -23.32157    0      3      
iter:  10  11:51:57  -5.1   -4.4     -23.32161    0      1      
iter:  11  11:52:04  -5.4   -4.6     -23.32165    0      1      
iter:  12  11:52:11  -5.4   -4.9     -23.32159    0      1      
iter:  13  11:52:18  -5.3   -5.0     -23.32159    0      1      
iter:  14  11:52:25  -5.3   -5.2     -23.32158    0      1      
iter:  15  11:52:32  -6.2   -5.3     -23.32161    0      1      
iter:  16  11:52:39  -6.0   -5.6     -23.32162    0      1      
iter:  17  11:52:45  -6.1   -5.8     -23.32161    0      1      
iter:  18  11:52:52  -7.0   -5.8     -23.32161    0      1      
iter:  19  11:52:59  -7.0   -6.0     -23.32161    0      1      
iter:  20  11:53:06  -7.5   -6.4     -23.32161    0      1      
iter:  21  11:53:13  -7.6   -6.2     -23.32161    0      1      
iter:  22  11:53:20  -7.3   -6.4     -23.32161    0      1      
iter:  23  11:53:27  -7.3   -6.8     -23.32161    0      1      
iter:  24  11:53:33  -7.9   -6.5     -23.32161    0      1      
iter:  25  11:53:40  -8.3   -6.6     -23.32161    0      1      
iter:  26  11:53:47  -7.7   -6.8     -23.32161    0      1      
iter:  27  11:53:54  -8.1   -6.9     -23.32161    0      1      
iter:  28  11:54:01  -8.2   -6.8     -23.32161    0      1      
iter:  29  11:54:08  -8.0   -6.9     -23.32161    0      1      
iter:  30  11:54:15  -8.6   -7.1     -23.32161    0      1      
iter:  31  11:54:21  -8.4   -7.4     -23.32161    0      1      
iter:  32  11:54:28  -9.4   -7.3     -23.32161    0      1      
------------------------------------
Converged After 32 Iterations.

Energy Contributions Relative to Reference Atoms:(reference = -2067.75649)
-------------------------
Kinetic:        +19.48636
Potential:      -21.39735
External:        +0.00000
XC:             -21.59245
Entropy (-ST):   -0.00000
Local:           +0.18183
-------------------------
Free Energy:    -23.32161
Zero Kelvin:    -23.32161

Fermi Level: -4.68615
 Band   Eigenvalues  Occupancy
   0    -25.46877     2.00000
   1    -13.42387     2.00000
   2     -9.68318     2.00000
   3     -7.60652     2.00000
   4     -1.76578     0.00000
   5     -0.95149     0.00000
   6     -0.72988     0.00000
   7     -0.61288     0.00000
   8     -0.29863     0.00000
   9     -0.16838     0.00000
  10     -0.10412     0.00000
  11      0.03117     0.00000
  12      0.46367     0.00000
  13      0.56939     0.00000
  14      0.99302     0.00000
  15      1.04998     0.00000
  16      1.15524     0.00000
  17      1.24921     0.00000
  18      1.34669     0.00000
  19      1.74372     0.00000
  20      1.81166     0.00000
  21      1.99928     0.00000
  22      2.10159     0.00000
  23      2.17356     0.00000


Total Charge:  0.000000 electrons
Dipole Moment: [-0.08941399  0.25169441  0.26586815]

Forces in eV/Ang:
  0 O     0.01189   -0.02059   -0.00913
  1 H    -0.01603    0.01850   -0.00356
  2 H     0.00113    0.01908    0.01610

Positions:
  0 O     5.3130    5.0594    5.0614
  1 H     5.3193    4.9394    6.0291
  2 H     5.0059    5.9766    4.9383

        .------------------------.  
       /|                        |  
      / |                        |  
     /  |                        |  
    /   |                        |  
   /    |                        |  
  /     |                        |  
 *      |                        |  
 |      |                        |  
 |      |                        |  
 |      |        H               |  
 |      |        O               |  
 |      |                        |  
 |      |                        |  
 |      .------------------------.  
 |     /                        /   
 |    /                        /    
 |   /                        /     
 |  /                        /      
 | /                        /       
 |/                        /        
 *------------------------*         

Unit Cell:
           Periodic     X           Y           Z      Points  Spacing
  --------------------------------------------------------------------
  1. axis:    no    10.312107    0.000000    0.000000    52     0.1983
  2. axis:    no     0.000000   10.960567    0.000000    56     0.1957
  3. axis:    no     0.000000    0.000000   11.010000    56     0.1966

O-setup:
  name   : Oxygen
  id     : 67c3882fbc6f3c92bc2234e8514132d8
  Z      : 8
  valence: 6
  core   : 2
  charge : 0.0
  file   : /fs/local/linux26_x86_64/appl/nano/gpaw/setups/0.8/O.revPBE.gz
  cutoffs: 0.74(comp), 1.30(filt), 0.83(core), lmax=2
  valence states:
            energy   radius
    2s(2)  -23.998   0.741
    2p(4)   -8.969   0.741
    *s       3.214   0.741
    *p      18.243   0.741
    *d       0.000   0.741

Using partial waves for O as LCAO basis

H-setup:
  name   : Hydrogen
  id     : 3c6a698a8690aeeacbc6041f547121c6
  Z      : 1
  valence: 1
  core   : 0
  charge : 0.0
  file   : /fs/local/linux26_x86_64/appl/nano/gpaw/setups/0.8/H.revPBE.gz
  cutoffs: 0.48(comp), 0.85(filt), 0.53(core), lmax=2
  valence states:
            energy   radius
    1s(1)   -6.547   0.476
    *s      20.664   0.476
    *p       0.000   0.476

Using partial waves for H as LCAO basis

Using the vdW-DF2 Exchange-Correlation Functional.
Spin-Paired Calculation
Total Charge:      0.000000
Fermi Temperature: 0.000000
Mode: Finite-difference
Eigensolver:       rmm-diis
                   (3 nearest neighbors central finite-difference stencil)
Poisson Solver:    Jacobi
                   (3 nearest neighbors central finite-difference stencil)

Interpolation:     6th Order
Reference Energy:  -2067.756486

Gamma Point Calculation
Total number of cores used: 16
Domain Decomposition: 2 x 2 x 4
MatrixOperator buffer_size: default value or 
                            see value of nblock in input file
Diagonalizer layout: Serial LAPACK
Orthonormalizer layout: Serial LAPACK

Symmetries present: 1
1 k-point in the Irreducible Part of the Brillouin Zone (total: 1)
Linear Mixing Parameter:           0.25
Pulay Mixing with 3 Old Densities
No Damping of Long Wave Oscillations

Convergence Criteria:
Total Energy Change:           0.0005 eV / electron
Integral of Absolute Density Change:    0.0001 electrons
Integral of Absolute Eigenstate Change: 1e-09
Number of Bands in Calculation:         24
Bands to Converge:                      Occupied States Only
Number of Valence Electrons:            8
                     log10-error:    Total        Iterations:
           Time      WFS    Density  Energy       Fermi  Poisson
iter:   1  11:54:35  -1.7            -23.26754    0      11     
iter:   2  11:54:43  -2.7   -1.9     -23.32902    0      6      
iter:   3  11:54:50  -2.6   -1.9     -23.31996    0      9      
iter:   4  11:54:57  -3.5   -2.0     -23.32099    0      8      
iter:   5  11:55:04  -4.9   -2.9     -23.32206    0      4      
iter:   6  11:55:11  -4.1   -2.7     -23.32151    0      6      
iter:   7  11:55:18  -4.4   -3.2     -23.32167    0      4      
iter:   8  11:55:25  -4.5   -3.5     -23.32168    0      4      
iter:   9  11:55:32  -4.5   -3.8     -23.32164    0      3      
iter:  10  11:55:39  -4.9   -3.9     -23.32170    0      3      
iter:  11  11:55:45  -5.1   -4.3     -23.32169    0      2      
iter:  12  11:55:52  -4.7   -4.4     -23.32167    0      2      
iter:  13  11:55:59  -5.2   -4.8     -23.32173    0      1      
iter:  14  11:56:06  -5.3   -5.0     -23.32177    0      1      
iter:  15  11:56:13  -5.1   -5.2     -23.32177    0      1      
iter:  16  11:56:20  -5.5   -5.3     -23.32171    0      1      
iter:  17  11:56:27  -5.8   -5.5     -23.32171    0      1      
iter:  18  11:56:34  -5.7   -5.6     -23.32170    0      1      
iter:  19  11:56:40  -6.4   -5.6     -23.32173    0      1      
iter:  20  11:56:47  -7.4   -5.9     -23.32172    0      1      
iter:  21  11:56:54  -7.1   -6.0     -23.32172    0      1      
iter:  22  11:57:01  -7.4   -6.2     -23.32172    0      1      
iter:  23  11:57:08  -7.5   -6.4     -23.32172    0      1      
iter:  24  11:57:15  -7.8   -6.6     -23.32172    0      1      
iter:  25  11:57:22  -8.4   -6.8     -23.32172    0      1      
iter:  26  11:57:28  -8.5   -6.8     -23.32172    0      1      
iter:  27  11:57:35  -9.3   -6.8     -23.32172    0      1      
------------------------------------
Converged After 27 Iterations.

Energy Contributions Relative to Reference Atoms:(reference = -2067.75649)
-------------------------
Kinetic:        +19.46803
Potential:      -21.38630
External:        +0.00000
XC:             -21.58539
Entropy (-ST):   -0.00000
Local:           +0.18193
-------------------------
Free Energy:    -23.32172
Zero Kelvin:    -23.32172

Fermi Level: -4.68398
 Band   Eigenvalues  Occupancy
   0    -25.47014     2.00000
   1    -13.40696     2.00000
   2     -9.69707     2.00000
   3     -7.60728     2.00000
   4     -1.76067     0.00000
   5     -0.93866     0.00000
   6     -0.69954     0.00000
   7     -0.56821     0.00000
   8     -0.26251     0.00000
   9     -0.14506     0.00000
  10     -0.09058     0.00000
  11      0.06599     0.00000
  12      0.50023     0.00000
  13      0.60372     0.00000
  14      1.01213     0.00000
  15      1.07227     0.00000
  16      1.16842     0.00000
  17      1.26190     0.00000
  18      1.35350     0.00000
  19      1.77495     0.00000
  20      1.83172     0.00000
  21      2.03821     0.00000
  22      2.13579     0.00000
  23      2.21572     0.00000


Total Charge:  -0.000000 electrons
Dipole Moment: [-0.09462462  0.25105464  0.26592957]

Forces in eV/Ang:
  0 O    -0.01299    0.00201    0.00752
  1 H    -0.01166   -0.00121   -0.01276
  2 H     0.00337    0.00655   -0.00462
