
  ___ ___ ___ _ _ _  
 |   |   |_  | | | | 
 | | | | | . | | | | 
 |__ |  _|___|_____|  0.8.0.8092M
 |___|_|             

User: pamparkk@lh1-fyskem1115
Date: Mon Oct 29 11:21:09 2012
Arch: x86_64
Pid:  8705
Dir:  /home/pamparkk/lib/python/gpaw
ase:   /home/pamparkk/ase/ase  version:  3.5.1.2175
numpy: /usr/lib/python2.6/dist-packages/numpy
units: Angstrom and eV

Memory estimate
---------------
Process memory now: 22.05 MiB
Calculator  276.54 MiB
    Density  67.48 MiB
        Arrays  31.40 MiB
        Localized functions  1.51 MiB
        Mixer  7.06 MiB
        Interpolator  27.51 MiB
    Hamiltonian  116.66 MiB
        Arrays  20.54 MiB
        Restrictor  17.54 MiB
        XC  0.00 MiB
        Poisson  78.47 MiB
        vbar  0.11 MiB
    Wavefunctions  92.40 MiB
        Arrays psit_nG  28.25 MiB
        Eigensolver  34.13 MiB
        Projectors  0.15 MiB
        Overlap op  28.25 MiB
        Kinetic operator  1.62 MiB

Positions:
  0 O     5.2846    5.0490    5.0520
  1 H     5.3297    4.9404    6.0205
  2 H     4.9985    5.9715    4.9376

        .------------------------.  
       /|                        |  
      / |                        |  
     /  |                        |  
    /   |                        |  
   /    |                        |  
  /     |                        |  
 *      |                        |  
 |      |                        |  
 |      |                        |  
 |      |        H               |  
 |      |        O               |  
 |      |                        |  
 |      |                        |  
 |      .------------------------.  
 |     /                        /   
 |    /                        /    
 |   /                        /     
 |  /                        /      
 | /                        /       
 |/                        /        
 *------------------------*         

Unit Cell:
           Periodic     X           Y           Z      Points  Spacing
  --------------------------------------------------------------------
  1. axis:    no    10.312107    0.000000    0.000000    52     0.1983
  2. axis:    no     0.000000   10.960567    0.000000    56     0.1957
  3. axis:    no     0.000000    0.000000   11.010000    56     0.1966

O-setup:
  name   : Oxygen
  id     : c7d727ddbf81696289a2bba6bb064aec
  Z      : 8
  valence: 6
  core   : 2
  charge : 0.0
  file   : /home/pamparkk/gpaw-setups-0.8.7929/O.PBE.gz
  cutoffs: 0.74(comp), 1.30(filt), 0.83(core), lmax=2
  valence states:
            energy   radius
    2s(2)  -23.961   0.741
    2p(4)   -9.029   0.741
    *s       3.251   0.741
    *p      18.182   0.741
    *d       0.000   0.741

Using partial waves for O as LCAO basis

H-setup:
  name   : Hydrogen
  id     : d65de229564ff8ea4db303e23b6d1ecf
  Z      : 1
  valence: 1
  core   : 0
  charge : 0.0
  file   : /home/pamparkk/gpaw-setups-0.8.7929/H.PBE.gz
  cutoffs: 0.48(comp), 0.85(filt), 0.53(core), lmax=2
  valence states:
            energy   radius
    1s(1)   -6.494   0.476
    *s      20.717   0.476
    *p       0.000   0.476

Using partial waves for H as LCAO basis

Using the PBE Exchange-Correlation Functional.
Spin-Paired Calculation
Total Charge:      0.000000
Fermi Temperature: 0.000000
Mode: Finite-difference
Eigensolver:       rmm-diis
                   (3 nearest neighbors central finite-difference stencil)
Poisson Solver:    Jacobi
                   (3 nearest neighbors central finite-difference stencil)

Interpolation:     6th Order
Reference Energy:  -2065.833348

Gamma Point Calculation
Total number of cores used: 1
MatrixOperator buffer_size: default value or 
                            see value of nblock in input file
Diagonalizer layout: Serial LAPACK
Orthonormalizer layout: Serial LAPACK

Symmetries present: 1
1 k-point in the Irreducible Part of the Brillouin Zone (total: 1)
Linear Mixing Parameter:           0.25
Pulay Mixing with 3 Old Densities
No Damping of Long Wave Oscillations

Convergence Criteria:
Total Energy Change:           0.0005 eV / electron
Integral of Absolute Density Change:    0.0001 electrons
Integral of Absolute Eigenstate Change: 1e-09
Number of Bands in Calculation:         24
Bands to Converge:                      Occupied States Only
Number of Valence Electrons:            8
                     log10-error:    Total        Iterations:
           Time      WFS    Density  Energy       Fermi  Poisson
iter:   1  11:21:16  +2.8            -12.31000    0      23     
iter:   2  11:21:17  -1.0            -15.93969    0             
iter:   3  11:21:18  -1.5            -16.17298    0             
iter:   4  11:21:23  -1.1   -0.7     -14.26524    0      14     
iter:   5  11:21:27  -1.5   -1.0     -14.22615    0      13     
iter:   6  11:21:31  -1.5   -1.2     -14.40723    0      9      
iter:   7  11:21:35  -2.3   -1.4     -14.33181    0      11     
iter:   8  11:21:39  -2.7   -2.1     -14.33879    0      7      
iter:   9  11:21:42  -3.5   -2.3     -14.34634    0      5      
iter:  10  11:21:46  -4.0   -2.4     -14.34631    0      5      
iter:  11  11:21:49  -4.0   -2.6     -14.34687    0      5      
iter:  12  11:21:52  -4.0   -2.4     -14.34620    0      5      
iter:  13  11:21:55  -5.3   -3.2     -14.34639    0      3      
iter:  14  11:21:58  -5.2   -3.3     -14.34637    0      4      
iter:  15  11:22:01  -6.7   -3.3     -14.34642    0      3      
iter:  16  11:22:04  -5.9   -3.4     -14.34640    0      4      
iter:  17  11:22:06  -7.1   -4.0     -14.34631    0      2      
iter:  18  11:22:09  -6.7   -4.1     -14.34635    0      3      
iter:  19  11:22:12  -6.8   -4.2     -14.34642    0      3      
iter:  20  11:22:15  -7.3   -4.1     -14.34628    0      2      
iter:  21  11:22:17  -8.2   -4.9     -14.34625    0      1      
iter:  22  11:22:20  -8.8   -5.0     -14.34651    0      1      
iter:  23  11:22:22  -9.8   -5.2     -14.34637    0      1      
------------------------------------
Converged After 23 Iterations.

Energy Contributions Relative to Reference Atoms:(reference = -2065.83335)
-------------------------
Kinetic:        +15.41308
Potential:      -17.45381
External:        +0.00000
XC:             -12.46828
Entropy (-ST):   -0.00000
Local:           +0.16263
-------------------------
Free Energy:    -14.34637
Zero Kelvin:    -14.34637

Fermi Level: -4.08816
 Band   Eigenvalues  Occupancy
   0    -25.24700     2.00000
   1    -13.03033     2.00000
   2     -9.37383     2.00000
   3     -7.24267     2.00000
   4     -0.93365     0.00000
   5      0.67034     0.00000
   6      1.21653     0.00000
   7      1.24725     0.00000
   8      2.14028     0.00000
   9      2.33757     0.00000
  10      2.44039     0.00000
  11      2.45842     0.00000
  12      2.54462     0.00000
  13      2.87940     0.00000
  14      3.45778     0.00000
  15      3.64730     0.00000
  16      3.91603     0.00000
  17      3.97056     0.00000
  18      4.12178     0.00000
  19      4.18262     0.00000
  20      4.34662     0.00000
  21      4.63823     0.00000
  22      4.95720     0.00000
  23      5.25695     0.00000


Total Charge:  0.000000 electrons
Dipole Moment: [-0.07588072  0.25596892  0.26815537]

Forces in eV/Ang:
  0 O     0.04050   -0.16402    0.05925
  1 H    -0.00974    0.00370   -0.01803
  2 H    -0.02841    0.14152   -0.01378

Positions:
  0 O     5.3046    5.0490    5.0520
  1 H     5.3297    4.9404    6.0205
  2 H     4.9985    5.9715    4.9376

        .------------------------.  
       /|                        |  
      / |                        |  
     /  |                        |  
    /   |                        |  
   /    |                        |  
  /     |                        |  
 *      |                        |  
 |      |                        |  
 |      |                        |  
 |      |        H               |  
 |      |        O               |  
 |      |                        |  
 |      |                        |  
 |      .------------------------.  
 |     /                        /   
 |    /                        /    
 |   /                        /     
 |  /                        /      
 | /                        /       
 |/                        /        
 *------------------------*         

Unit Cell:
           Periodic     X           Y           Z      Points  Spacing
  --------------------------------------------------------------------
  1. axis:    no    10.312107    0.000000    0.000000    52     0.1983
  2. axis:    no     0.000000   10.960567    0.000000    56     0.1957
  3. axis:    no     0.000000    0.000000   11.010000    56     0.1966

O-setup:
  name   : Oxygen
  id     : c7d727ddbf81696289a2bba6bb064aec
  Z      : 8
  valence: 6
  core   : 2
  charge : 0.0
  file   : /home/pamparkk/gpaw-setups-0.8.7929/O.PBE.gz
  cutoffs: 0.74(comp), 1.30(filt), 0.83(core), lmax=2
  valence states:
            energy   radius
    2s(2)  -23.961   0.741
    2p(4)   -9.029   0.741
    *s       3.251   0.741
    *p      18.182   0.741
    *d       0.000   0.741

Using partial waves for O as LCAO basis

H-setup:
  name   : Hydrogen
  id     : d65de229564ff8ea4db303e23b6d1ecf
  Z      : 1
  valence: 1
  core   : 0
  charge : 0.0
  file   : /home/pamparkk/gpaw-setups-0.8.7929/H.PBE.gz
  cutoffs: 0.48(comp), 0.85(filt), 0.53(core), lmax=2
  valence states:
            energy   radius
    1s(1)   -6.494   0.476
    *s      20.717   0.476
    *p       0.000   0.476

Using partial waves for H as LCAO basis

Using the PBE Exchange-Correlation Functional.
Spin-Paired Calculation
Total Charge:      0.000000
Fermi Temperature: 0.000000
Mode: Finite-difference
Eigensolver:       rmm-diis
                   (3 nearest neighbors central finite-difference stencil)
Poisson Solver:    Jacobi
                   (3 nearest neighbors central finite-difference stencil)

Interpolation:     6th Order
Reference Energy:  -2065.833348

Gamma Point Calculation
Total number of cores used: 1
MatrixOperator buffer_size: default value or 
                            see value of nblock in input file
Diagonalizer layout: Serial LAPACK
Orthonormalizer layout: Serial LAPACK

Symmetries present: 1
1 k-point in the Irreducible Part of the Brillouin Zone (total: 1)
Linear Mixing Parameter:           0.25
Pulay Mixing with 3 Old Densities
No Damping of Long Wave Oscillations

Convergence Criteria:
Total Energy Change:           0.0005 eV / electron
Integral of Absolute Density Change:    0.0001 electrons
Integral of Absolute Eigenstate Change: 1e-09
Number of Bands in Calculation:         24
Bands to Converge:                      Occupied States Only
Number of Valence Electrons:            8
                     log10-error:    Total        Iterations:
           Time      WFS    Density  Energy       Fermi  Poisson
iter:   1  11:22:28  -0.9            -14.06037    0      12     
iter:   2  11:22:32  -1.9   -1.5     -14.38723    0      8      
iter:   3  11:22:36  -1.9   -1.6     -14.31584    0      10     
iter:   4  11:22:40  -3.1   -2.0     -14.34562    0      8      
iter:   5  11:22:43  -3.8   -2.5     -14.34583    0      6      
iter:   6  11:22:46  -4.5   -2.7     -14.34649    0      6      
iter:   7  11:22:50  -4.8   -2.7     -14.34604    0      6      
iter:   8  11:22:53  -5.5   -3.6     -14.34618    0      3      
iter:   9  11:22:55  -6.3   -3.8     -14.34619    0      3      
iter:  10  11:22:58  -6.9   -4.1     -14.34612    0      2      
iter:  11  11:23:01  -7.3   -4.3     -14.34609    0      2      
iter:  12  11:23:03  -8.0   -4.7     -14.34614    0      1      
iter:  13  11:23:06  -8.8   -4.8     -14.34616    0      2      
iter:  14  11:23:08  -9.6   -5.2     -14.34612    0      1      
------------------------------------
Converged After 14 Iterations.

Energy Contributions Relative to Reference Atoms:(reference = -2065.83335)
-------------------------
Kinetic:        +15.17705
Potential:      -17.28376
External:        +0.00000
XC:             -12.40278
Entropy (-ST):   -0.00000
Local:           +0.16338
-------------------------
Free Energy:    -14.34612
Zero Kelvin:    -14.34612

Fermi Level: -4.09141
 Band   Eigenvalues  Occupancy
   0    -25.22488     2.00000
   1    -12.98709     2.00000
   2     -9.38994     2.00000
   3     -7.23903     2.00000
   4     -0.94379     0.00000
   5      0.66431     0.00000
   6      1.21295     0.00000
   7      1.24846     0.00000
   8      2.13539     0.00000
   9      2.33536     0.00000
  10      2.43758     0.00000
  11      2.45582     0.00000
  12      2.54181     0.00000
  13      2.87919     0.00000
  14      3.44645     0.00000
  15      3.64459     0.00000
  16      3.90738     0.00000
  17      3.96788     0.00000
  18      4.11606     0.00000
  19      4.16419     0.00000
  20      4.34286     0.00000
  21      4.55293     0.00000
  22      4.91830     0.00000
  23      5.12159     0.00000


Total Charge:  0.000000 electrons
Dipole Moment: [-0.0880194   0.25461195  0.26771688]

Forces in eV/Ang:
  0 O    -0.06808    0.16735   -0.03490
  1 H    -0.00090   -0.02237    0.02952
  2 H     0.06194   -0.13917   -0.00089

Positions:
  0 O     5.2946    5.0390    5.0520
  1 H     5.3297    4.9404    6.0205
  2 H     4.9985    5.9715    4.9376

        .------------------------.  
       /|                        |  
      / |                        |  
     /  |                        |  
    /   |                        |  
   /    |                        |  
  /     |                        |  
 *      |                        |  
 |      |                        |  
 |      |                        |  
 |      |        H               |  
 |      |        O               |  
 |      |                        |  
 |      |                        |  
 |      .------------------------.  
 |     /                        /   
 |    /                        /    
 |   /                        /     
 |  /                        /      
 | /                        /       
 |/                        /        
 *------------------------*         

Unit Cell:
           Periodic     X           Y           Z      Points  Spacing
  --------------------------------------------------------------------
  1. axis:    no    10.312107    0.000000    0.000000    52     0.1983
  2. axis:    no     0.000000   10.960567    0.000000    56     0.1957
  3. axis:    no     0.000000    0.000000   11.010000    56     0.1966

O-setup:
  name   : Oxygen
  id     : c7d727ddbf81696289a2bba6bb064aec
  Z      : 8
  valence: 6
  core   : 2
  charge : 0.0
  file   : /home/pamparkk/gpaw-setups-0.8.7929/O.PBE.gz
  cutoffs: 0.74(comp), 1.30(filt), 0.83(core), lmax=2
  valence states:
            energy   radius
    2s(2)  -23.961   0.741
    2p(4)   -9.029   0.741
    *s       3.251   0.741
    *p      18.182   0.741
    *d       0.000   0.741

Using partial waves for O as LCAO basis

H-setup:
  name   : Hydrogen
  id     : d65de229564ff8ea4db303e23b6d1ecf
  Z      : 1
  valence: 1
  core   : 0
  charge : 0.0
  file   : /home/pamparkk/gpaw-setups-0.8.7929/H.PBE.gz
  cutoffs: 0.48(comp), 0.85(filt), 0.53(core), lmax=2
  valence states:
            energy   radius
    1s(1)   -6.494   0.476
    *s      20.717   0.476
    *p       0.000   0.476

Using partial waves for H as LCAO basis

Using the PBE Exchange-Correlation Functional.
Spin-Paired Calculation
Total Charge:      0.000000
Fermi Temperature: 0.000000
Mode: Finite-difference
Eigensolver:       rmm-diis
                   (3 nearest neighbors central finite-difference stencil)
Poisson Solver:    Jacobi
                   (3 nearest neighbors central finite-difference stencil)

Interpolation:     6th Order
Reference Energy:  -2065.833348

Gamma Point Calculation
Total number of cores used: 1
MatrixOperator buffer_size: default value or 
                            see value of nblock in input file
Diagonalizer layout: Serial LAPACK
Orthonormalizer layout: Serial LAPACK

Symmetries present: 1
1 k-point in the Irreducible Part of the Brillouin Zone (total: 1)
Linear Mixing Parameter:           0.25
Pulay Mixing with 3 Old Densities
No Damping of Long Wave Oscillations

Convergence Criteria:
Total Energy Change:           0.0005 eV / electron
Integral of Absolute Density Change:    0.0001 electrons
Integral of Absolute Eigenstate Change: 1e-09
Number of Bands in Calculation:         24
Bands to Converge:                      Occupied States Only
Number of Valence Electrons:            8
                     log10-error:    Total        Iterations:
           Time      WFS    Density  Energy       Fermi  Poisson
iter:   1  11:23:14  -1.3            -14.20289    0      11     
iter:   2  11:23:18  -2.3   -1.6     -14.36841    0      7      
iter:   3  11:23:22  -2.1   -1.7     -14.34043    0      10     
iter:   4  11:23:26  -3.1   -1.8     -14.34324    0      8      
iter:   5  11:23:29  -3.9   -2.4     -14.34338    0      6      
iter:   6  11:23:32  -4.7   -2.9     -14.34414    0      5      
iter:   7  11:23:35  -5.2   -3.0     -14.34406    0      5      
iter:   8  11:23:38  -5.2   -3.6     -14.34407    0      3      
iter:   9  11:23:41  -6.4   -3.8     -14.34407    0      3      
iter:  10  11:23:44  -7.2   -4.1     -14.34413    0      2      
iter:  11  11:23:47  -7.5   -4.3     -14.34415    0      2      
iter:  12  11:23:49  -8.4   -4.4     -14.34406    0      2      
iter:  13  11:23:52  -9.0   -4.6     -14.34410    0      2      
------------------------------------
Converged After 13 Iterations.

Energy Contributions Relative to Reference Atoms:(reference = -2065.83335)
-------------------------
Kinetic:        +14.93902
Potential:      -17.11115
External:        +0.00000
XC:             -12.33520
Entropy (-ST):   -0.00000
Local:           +0.16325
-------------------------
Free Energy:    -14.34410
Zero Kelvin:    -14.34410

Fermi Level: -4.09493
 Band   Eigenvalues  Occupancy
   0    -25.20178     2.00000
   1    -12.94160     2.00000
   2     -9.40632     2.00000
   3     -7.23508     2.00000
   4     -0.95478     0.00000
   5      0.65783     0.00000
   6      1.21320     0.00000
   7      1.24582     0.00000
   8      2.13183     0.00000
   9      2.33473     0.00000
  10      2.43270     0.00000
  11      2.45328     0.00000
  12      2.53525     0.00000
  13      2.87828     0.00000
  14      3.43775     0.00000
  15      3.64378     0.00000
  16      3.90730     0.00000
  17      3.96439     0.00000
  18      4.11409     0.00000
  19      4.16295     0.00000
  20      4.34245     0.00000
  21      4.54114     0.00000
  22      4.89541     0.00000
  23      5.07507     0.00000


Total Charge:  0.000000 electrons
Dipole Moment: [-0.08129003  0.25943424  0.26727865]

Forces in eV/Ang:
  0 O    -0.16773    0.48396   -0.08326
  1 H     0.00767   -0.04889    0.07944
  2 H     0.14940   -0.42424    0.01126

Positions:
  0 O     5.2946    5.0590    5.0520
  1 H     5.3297    4.9404    6.0205
  2 H     4.9985    5.9715    4.9376

        .------------------------.  
       /|                        |  
      / |                        |  
     /  |                        |  
    /   |                        |  
   /    |                        |  
  /     |                        |  
 *      |                        |  
 |      |                        |  
 |      |                        |  
 |      |        H               |  
 |      |        O               |  
 |      |                        |  
 |      |                        |  
 |      .------------------------.  
 |     /                        /   
 |    /                        /    
 |   /                        /     
 |  /                        /      
 | /                        /       
 |/                        /        
 *------------------------*         

Unit Cell:
           Periodic     X           Y           Z      Points  Spacing
  --------------------------------------------------------------------
  1. axis:    no    10.312107    0.000000    0.000000    52     0.1983
  2. axis:    no     0.000000   10.960567    0.000000    56     0.1957
  3. axis:    no     0.000000    0.000000   11.010000    56     0.1966

O-setup:
  name   : Oxygen
  id     : c7d727ddbf81696289a2bba6bb064aec
  Z      : 8
  valence: 6
  core   : 2
  charge : 0.0
  file   : /home/pamparkk/gpaw-setups-0.8.7929/O.PBE.gz
  cutoffs: 0.74(comp), 1.30(filt), 0.83(core), lmax=2
  valence states:
            energy   radius
    2s(2)  -23.961   0.741
    2p(4)   -9.029   0.741
    *s       3.251   0.741
    *p      18.182   0.741
    *d       0.000   0.741

Using partial waves for O as LCAO basis

H-setup:
  name   : Hydrogen
  id     : d65de229564ff8ea4db303e23b6d1ecf
  Z      : 1
  valence: 1
  core   : 0
  charge : 0.0
  file   : /home/pamparkk/gpaw-setups-0.8.7929/H.PBE.gz
  cutoffs: 0.48(comp), 0.85(filt), 0.53(core), lmax=2
  valence states:
            energy   radius
    1s(1)   -6.494   0.476
    *s      20.717   0.476
    *p       0.000   0.476

Using partial waves for H as LCAO basis

Using the PBE Exchange-Correlation Functional.
Spin-Paired Calculation
Total Charge:      0.000000
Fermi Temperature: 0.000000
Mode: Finite-difference
Eigensolver:       rmm-diis
                   (3 nearest neighbors central finite-difference stencil)
Poisson Solver:    Jacobi
                   (3 nearest neighbors central finite-difference stencil)

Interpolation:     6th Order
Reference Energy:  -2065.833348

Gamma Point Calculation
Total number of cores used: 1
MatrixOperator buffer_size: default value or 
                            see value of nblock in input file
Diagonalizer layout: Serial LAPACK
Orthonormalizer layout: Serial LAPACK

Symmetries present: 1
1 k-point in the Irreducible Part of the Brillouin Zone (total: 1)
Linear Mixing Parameter:           0.25
Pulay Mixing with 3 Old Densities
No Damping of Long Wave Oscillations

Convergence Criteria:
Total Energy Change:           0.0005 eV / electron
Integral of Absolute Density Change:    0.0001 electrons
Integral of Absolute Eigenstate Change: 1e-09
Number of Bands in Calculation:         24
Bands to Converge:                      Occupied States Only
Number of Valence Electrons:            8
                     log10-error:    Total        Iterations:
           Time      WFS    Density  Energy       Fermi  Poisson
iter:   1  11:23:58  -1.0            -14.08002    0      12     
iter:   2  11:24:02  -2.1   -1.5     -14.39901    0      8      
iter:   3  11:24:06  -1.8   -1.5     -14.34019    0      12     
iter:   4  11:24:10  -2.6   -1.5     -14.33698    0      10     
iter:   5  11:24:14  -4.1   -2.4     -14.34534    0      4      
iter:   6  11:24:17  -4.8   -2.3     -14.34687    0      5      
iter:   7  11:24:21  -3.4   -2.2     -14.34311    0      8      
iter:   8  11:24:24  -4.3   -2.4     -14.34386    0      6      
iter:   9  11:24:27  -5.1   -3.0     -14.34410    0      4      
iter:  10  11:24:30  -5.7   -3.1     -14.34415    0      4      
iter:  11  11:24:33  -6.8   -3.5     -14.34409    0      3      
iter:  12  11:24:36  -6.6   -3.7     -14.34407    0      3      
iter:  13  11:24:39  -7.7   -4.2     -14.34416    0      2      
iter:  14  11:24:41  -7.5   -4.3     -14.34419    0      2      
iter:  15  11:24:44  -8.4   -4.6     -14.34388    0      1      
iter:  16  11:24:46  -8.6   -4.8     -14.34395    0      1      
iter:  17  11:24:49  -8.9   -4.9     -14.34422    0      1      
iter:  18  11:24:51  -9.8   -5.3     -14.34410    0      1      
------------------------------------
Converged After 18 Iterations.

Energy Contributions Relative to Reference Atoms:(reference = -2065.83335)
-------------------------
Kinetic:        +15.67081
Potential:      -17.63900
External:        +0.00000
XC:             -12.53902
Entropy (-ST):   -0.00000
Local:           +0.16311
-------------------------
Free Energy:    -14.34410
Zero Kelvin:    -14.34410

Fermi Level: -4.08498
 Band   Eigenvalues  Occupancy
   0    -25.27150     2.00000
   1    -13.07685     2.00000
   2     -9.35681     2.00000
   3     -7.24660     2.00000
   4     -0.92335     0.00000
   5      0.67651     0.00000
   6      1.21627     0.00000
   7      1.24990     0.00000
   8      2.14286     0.00000
   9      2.33822     0.00000
  10      2.44397     0.00000
  11      2.46139     0.00000
  12      2.55218     0.00000
  13      2.88032     0.00000
  14      3.46620     0.00000
  15      3.64595     0.00000
  16      3.91001     0.00000
  17      3.96970     0.00000
  18      4.11973     0.00000
  19      4.16483     0.00000
  20      4.34376     0.00000
  21      4.55357     0.00000
  22      4.87909     0.00000
  23      5.05097     0.00000


Total Charge:  0.000000 electrons
Dipole Moment: [-0.0826339   0.25112761  0.26864498]

Forces in eV/Ang:
  0 O     0.16384   -0.49565    0.11758
  1 H    -0.01849    0.03200   -0.06757
  2 H    -0.13185    0.45562   -0.02955
Memory usage: 380.29 MB

============================================================
Timing:                               incl.     excl.
============================================================
Initialization:                      16.116     0.259   0.1% |
 Hamiltonian:                        15.773     0.000   0.0% |
  Atomic:                             0.507     0.003   0.0% |
   XC Correction:                     0.504     0.504   0.2% |
  Communicate energies:               0.000     0.000   0.0% |
  Hartree integrate/restrict:         0.059     0.059   0.0% |
  Initialize Hamiltonian:             0.005     0.005   0.0% |
  Poisson:                           10.542    10.542   4.7% |-|
  XC 3D grid:                         4.614     4.614   2.1% ||
  vbar:                               0.046     0.046   0.0% |
 LCAO initialization:                 0.083     0.070   0.0% |
  LCAO eigensolver:                   0.004     0.000   0.0% |
   Atomic Hamiltonian:                0.000     0.000   0.0% |
   Calculate projections:             0.000     0.000   0.0% |
   Distribute overlap matrix:         0.000     0.000   0.0% |
   Orbital Layouts:                   0.000     0.000   0.0% |
   Potential matrix:                  0.003     0.003   0.0% |
  LCAO to grid:                       0.006     0.006   0.0% |
  Set positions (LCAO WFS):           0.003     0.000   0.0% |
   Basic WFS set positions:           0.000     0.000   0.0% |
   Basis functions set positions:     0.000     0.000   0.0% |
   TCI: Calculate S, T, P:            0.003     0.003   0.0% |
 Redistribute:                        0.000     0.000   0.0% |
 Symmetrize density:                  0.000     0.000   0.0% |
Redistribute:                         0.001     0.001   0.0% |
SCF-cycle:                          201.184     0.034   0.0% |
 Density:                             2.527     0.001   0.0% |
  Atomic density matrices:            0.016     0.016   0.0% |
  Mix:                                2.148     2.148   1.0% |
  Multipole moments:                  0.003     0.003   0.0% |
  Pseudo density:                     0.359     0.358   0.2% |
   Symmetrize density:                0.001     0.001   0.0% |
 Hamiltonian:                       134.739     0.005   0.0% |
  Atomic:                             7.848     0.050   0.0% |
   XC Correction:                     7.797     7.797   3.5% ||
  Communicate energies:               0.000     0.000   0.0% |
  Hartree integrate/restrict:         0.918     0.918   0.4% |
  Poisson:                           52.981    52.981  23.7% |--------|
  XC 3D grid:                        72.475    72.475  32.4% |------------|
  vbar:                               0.513     0.513   0.2% |
 Orthonormalize:                      6.184     0.116   0.1% |
  Band Layouts:                       0.004     0.001   0.0% |
   Inverse Cholesky:                  0.003     0.003   0.0% |
  calc_matrix:                        2.830     2.830   1.3% ||
  rotate_psi:                         3.235     3.235   1.4% ||
 RMM-DIIS:                           39.404    19.985   8.9% |---|
  precondition:                      19.419    19.419   8.7% |--|
 Subspace diag:                      18.296     0.670   0.3% |
  Band Layouts:                       1.042     1.019   0.5% |
   Diagonalize:                       0.021     0.021   0.0% |
   Distribute results:                0.002     0.002   0.0% |
  calc_matrix:                       10.093    10.093   4.5% |-|
  rotate_psi:                         6.490     6.490   2.9% ||
Other:                                6.363     6.363   2.8% ||
============================================================
Total:                                        223.664 100.0%
============================================================
date: Mon Oct 29 11:24:53 2012
